 +-------------------------------------------------+
 |                                                 |
 |      CCC   AA    SSS  TTTTT  EEEEE  PPPP        |
 |     C     A  A  S       T    E      P   P       |
 |     C     AAAA   SS     T    EEE    PPPP        |
 |     C     A  A     S    T    E      P           |
 |      CCC  A  A  SSS     T    EEEEE  P           |
 |                                                 |
 +-------------------------------------------------+
 |                                                 |
 | Welcome to Academic Release CASTEP version 20.1 |          
 | Ab Initio Total Energy Program                  |
 |                                                 |
 | Authors:                                        |
 | M. Segall, M. Probert, C. Pickard, P. Hasnip,   |
 | S. Clark, K. Refson, J. R. Yates, M. Payne      |
 |                                                 |
 | Contributors:                                   |
 | P. Lindan, P. Haynes, J. White, V. Milman,      |
 | N. Govind, M. Gibson, P. Tulip, V. Cocula,      |
 | B. Montanari, D. Quigley, M. Glover,            |
 | L. Bernasconi, A. Perlov, M. Plummer,           |
 | E. McNellis, J. Meyer, J. Gale, D. Jochym       |
 | J. Aarons, B. Walker, R. Gillen, D. Jones       |
 | T. Green, I. J. Bush, C. J. Armstrong,          |
 | E. J. Higgins, E. L. Brown, M. S. McFly,        |
 | J. Wilkins, B-C. Shih, P. J. P. Byrne,          |
 | R. J. Maurer, J. C. Womack, A. Bartok-Partay    |
 |                                                 |
 | Copyright (c) 2000 - 2019                       |
 |                                                 |
 |     Distributed under the terms of an           |
 |     Agreement between the United Kingdom        |
 |     Car-Parrinello (UKCP) Consortium,           |
 |     Daresbury Laboratory and Accelrys, Inc.     |
 |                                                 |
 | Please cite                                     |
 |                                                 |
 |     "First principles methods using CASTEP"     |
 |                                                 |
 |         Zeitschrift fuer Kristallographie       |
 |           220(5-6) pp. 567-570 (2005)           |
 |                                                 |
 | S. J. Clark, M. D. Segall, C. J. Pickard,       |
 | P. J. Hasnip, M. J. Probert, K. Refson,         |
 | M. C. Payne                                     |
 |                                                 |
 |       in all publications arising from          |
 |              your use of CASTEP                 |
 |                                                 |
 +-------------------------------------------------+
 |                                                 |
 |              http://www.castep.org              |
 |                                                 |
 +-------------------------------------------------+
 
 
 
 Compiled for linux_x86_64_ifort17 on Fri, 05 Jul 2019 11:35:54 +0100
 from code version 5dacc5c3c63b+  Mon, 10 Jun 2019 22:27:09 +0100
 Compiler: Intel Fortran 17.0.1.132; Optimisation: fast
 MATHLIBS: Intel MKL(2017.0.1) (LAPACK version 3.6.0)
 FFT Lib : mkl
 Fundamental constants values: CODATA 2014
 
 Run started: Thu, 11 Jul 2019 14:20:46 +0100
 
 Atomic calculation performed for O: 1s2 2s2 2p4
 
 Converged in 47 iterations to an ae energy of -2041.872 eV
 
   ============================================================                
   | Pseudopotential Report - Date of generation 11-07-2019   |                
   ------------------------------------------------------------                
   | Element: O Ionic charge:  6.00 Level of theory: RSCAN    |                
   | Atomic Solver: Koelling-Harmon                           |                
   |                                                          |                
   |               Reference Electronic Structure             |                
   |         Orbital         Occupation         Energy        |                
   |            2s              2.000           -0.932        |                
   |            2p              4.000           -0.344        |                
   |                                                          |                
   |                 Pseudopotential Definition               |                
   |        Beta     l      e      Rc     scheme   norm       |                
   |          1      0   -0.932   1.100     qc      0         |                
   |          2      0    0.250   1.100     qc      0         |                
   |          3      1   -0.344   1.100     qc      0         |                
   |          4      1    0.250   1.100     qc      0         |                
   |         loc     2    0.000   1.100     pn      0         |                
   |                                                          |                
   | Augmentation charge Rinner = 0.769                       |                
   | Partial core correction Rc = 0.769                       |                
   ------------------------------------------------------------                
   | "2|1.1|17|20|23|20:21(qc=8)"                             |                
   ------------------------------------------------------------                
   |      Author: Chris J. Pickard, Cambridge University      |                
   ============================================================                
 
 Atomic calculation performed for Ni: 1s2 2s2 2p6 3s2 3p6 3d8 4s2
 
 Exceeded max iterations: converged to -0.000002992 eV
 The ae energy is -41389.616 eV
 
   ============================================================                
   | Pseudopotential Report - Date of generation 11-07-2019   |                
   ------------------------------------------------------------                
   | Element: Ni Ionic charge: 10.00 Level of theory: RSCAN   |                
   | Atomic Solver: Koelling-Harmon                           |                
   |                                                          |                
   |               Reference Electronic Structure             |                
   |         Orbital         Occupation         Energy        |                
   |            3d              8.000           -0.337        |                
   |            4s              2.000           -0.216        |                
   |                                                          |                
   |                 Pseudopotential Definition               |                
   |        Beta     l      e      Rc     scheme   norm       |                
   |          1      0   -0.216   2.401     qc      0         |                
   |          2      0    0.250   2.401     qc      0         |                
   |          3      1    0.000   2.401     qc      0         |                
   |          4      1    0.250   2.401     qc      0         |                
   |          5      2   -0.337   1.999     qc      0         |                
   |          6      2    0.250   1.999     qc      0         |                
   |         loc     3    0.000   2.401     pn      0         |                
   |                                                          |                
   | Augmentation charge Rinner = 1.001                       |                
   | Partial core correction Rc = 1.001                       |                
   ------------------------------------------------------------                
   | "3|2.4|2.4|1.0|8|9|10|40:41:32U2U2(qc=5.5)"              |                
   ------------------------------------------------------------                
   |      Author: Chris J. Pickard, Cambridge University      |                
   ============================================================                
 
 Pseudo atomic calculation performed for O 2s2 2p4
 
 Converged in 22 iterations to a total energy of -430.8139 eV
 
 Pseudo atomic calculation performed for Ni 3d8 4s2
 
 Converged in 41 iterations to a total energy of -1384.0069 eV
 Calculation not parallelised.

 ************************************ Title ************************************
 

 ***************************** General Parameters ******************************
  
 output verbosity                               : normal  (1)
 write checkpoint data to                       : NiO.check
 type of calculation                            : geometry optimization
 stress calculation                             : off
 density difference calculation                 : off
 electron localisation func (ELF) calculation   : off
 Hirshfeld analysis                             : off
 molecular orbital projected DOS                : off
 deltaSCF calculation                           : off
 unlimited duration calculation
 timing information                             : on
 memory usage estimate                          : on
 write extra output files                       : on
 write final potential to formatted file        : off
 write final density to formatted file          : off
 write BibTeX reference list                    : on
 write OTFG pseudopotential files               : on
 write electrostatic potential file             : on
 write bands file                               : on
 checkpoint writing                             : both castep_bin and check files
  
 output         length unit                     : A
 output           mass unit                     : amu
 output           time unit                     : ps
 output         charge unit                     : e
 output           spin unit                     : hbar/2
 output         energy unit                     : eV
 output          force unit                     : eV/A
 output       velocity unit                     : A/ps
 output       pressure unit                     : GPa
 output     inv_length unit                     : 1/A
 output      frequency unit                     : cm-1
 output force constant unit                     : eV/A**2
 output         volume unit                     : A**3
 output   IR intensity unit                     : (D/A)**2/amu
 output         dipole unit                     : D
 output         efield unit                     : eV/A/e
 output        entropy unit                     : J/mol/K
  
 wavefunctions paging                           : none
 random number generator seed                   : randomised (142046279)
 data distribution                              : optimal for this architecture
 optimization strategy                          : maximize speed(+++)

 *********************** Exchange-Correlation Parameters ***********************
  
 using functional                               : RSCAN
 relativistic treatment                         : Koelling-Harmon
 DFT+D: Semi-empirical dispersion correction    : off

 ************************* Pseudopotential Parameters **************************
  
 pseudopotential representation                 : reciprocal space
 <beta|phi> representation                      : reciprocal space
 spin-orbit coupling                            : off

 **************************** Basis Set Parameters *****************************
  
 basis set accuracy                             : EXTREME
 plane wave basis set cut-off                   :  1001.3790   eV
 size of standard grid                          :     1.7500
 size of   fine   grid                          :     4.0000
 size of   fine   gmax                          :    64.8482   1/A
 finite basis set correction                    : automatic
 number of sample energies                      :          3
           sample  spacing                      :     5.0000   eV

 **************************** Electronic Parameters ****************************
  
 number of  electrons                           :  16.00    
 net charge of system                           :  0.000    
 net spin   of system                           :  1.000    
 number of  up  spins                           :  8.500    
 number of down spins                           :  7.500    
 treating system as spin-polarized
 number of bands                                :         13

 ********************* Electronic Minimization Parameters **********************
  
 Method: Treating system as metallic with density mixing treatment of electrons,
         and number of  SD  steps               :          1
         and number of  CG  steps               :          4
  
 total energy / atom convergence tol.           : 0.1000E-04   eV
 eigen-energy convergence tolerance             : 0.1000E-05   eV
 max force / atom convergence tol.              : ignored
 convergence tolerance window                   :          3   cycles
 max. number of SCF cycles                      :         30
 number of fixed-spin iterations                :         10
 smearing scheme                                : Gaussian
 smearing width                                 : 0.2000       eV
 Fermi energy convergence tolerance             : 0.2721E-13   eV
 periodic dipole correction                     : NONE

 ************************** Density Mixing Parameters **************************
  
 density-mixing scheme                          : Broyden
 max. length of mixing history                  :         20
 charge density mixing amplitude                : 0.8000    
   spin density mixing amplitude                :  2.000    

 *********************** Population Analysis Parameters ************************
  
 Population analysis with cutoff                :  3.000       A
 Population analysis output                     : summary and pdos components

 ********************** Geometry Optimization Parameters ***********************
  
 optimization method                            : LBFGS
 max. no. of LBFGS updates                      : unbounded
 variable cell method                           : fixed basis quality
 max. number of steps                           :         30
 estimated bulk modulus                         :  500.0       GPa
 estimated <frequency>                          :  1668.       cm-1
 geom line minimiser                            : on
 with line minimiser tolerance                  :     0.4000
  with spin fully able to relax for all steps
 total energy convergence tolerance             : 0.2000E-04   eV/atom
        max ionic |force| tolerance             : 0.5000E-01   eV/A
 max ionic |displacement| tolerance             : 0.1000E-02   A
   max |stress component| tolerance             : 0.1000       GPa
 convergence tolerance window                   :          2   steps
 backup results every                           :          5   steps
 write geom trajectory file                     : on

 *******************************************************************************
  
 
                           -------------------------------
                                      Unit Cell
                           -------------------------------
        Real Lattice(A)                      Reciprocal Lattice(1/A)
     1.7260235     0.0000000     2.4359912        2.426844245   0.000000000   0.859771211
    -0.8630118     1.4947802     2.4359912       -1.213422122   2.101708767   0.859771211
    -0.8630118    -1.4947802     2.4359912       -1.213422122  -2.101708767   0.859771211
 
                       Lattice parameters(A)       Cell Angles
                    a =      2.985500          alpha =   60.090000
                    b =      2.985500          beta  =   60.090000
                    c =      2.985500          gamma =   60.090000
 
                       Current cell volume =            18.854760       A**3
                                   density =             3.961482   AMU/A**3
                                           =             6.578196     g/cm^3
 
                           -------------------------------
                                     Cell Contents
                           -------------------------------
                         Total number of ions in cell =    2
                      Total number of species in cell =    2
                        Max number of any one species =    1
 
            xxxxxxxxxxxxxxxxxxxxxxxxxxxxxxxxxxxxxxxxxxxxxxxxxxxxxxxxxxxx
            x  Element    Atom        Fractional coordinates of atoms  x
            x            Number           u          v          w      x
            x----------------------------------------------------------x
            x  O            1         0.500000   0.500000   0.500000   x 
            x  Ni           1         0.000000   0.000000   0.000000   x 
            xxxxxxxxxxxxxxxxxxxxxxxxxxxxxxxxxxxxxxxxxxxxxxxxxxxxxxxxxxxx
 
 
                         No user defined ionic velocities
 
                           -------------------------------
                                   Details of Species
                           -------------------------------
 
                               Mass of species in AMU
                                    O   15.9994000
                                    Ni   58.6934000
 
                          Electric Quadrupole Moment (Barn)
                                    O   -0.0255800 Isotope 17
                                    Ni    0.1620000 Isotope 61
 
                          Files used for pseudopotentials:
                                    O 2|1.1|17|20|23|20:21(qc=8)
                                    Ni 3|2.4|2.4|1.0|8|9|10|40:41:32U2U2(qc=5.5)
 
                           -------------------------------
                              k-Points For BZ Sampling
                           -------------------------------
                       MP grid size for SCF calculation is  5  5  5
                            with an offset of   0.000  0.000  0.000
                       Number of kpoints used =            19
 
                           -------------------------------
                               Symmetry and Constraints
                           -------------------------------
 
                      Maximum deviation from symmetry = 0.141001E-14     ANG
 
                      Number of symmetry operations   =          12
                      Number of ionic constraints     =           3
                      Point group of crystal =    20: D3d, -3m, -3 2/m
                      Space group of crystal =   166: R-3m, -R 3 2"
 
             Set iprint > 1 for details on symmetry rotations/translations
 
                         Centre of mass is constrained
             Set iprint > 1 for details of linear ionic constraints
 
                         Number of cell constraints= 4
                         Cell constraints are:  1 1 1 4 4 4
 
                         External pressure/stress (GPa)
                          0.00000   0.00000   0.00000
                                    0.00000   0.00000
                                              0.00000
  
+---------------- MEMORY AND SCRATCH DISK ESTIMATES PER PROCESS --------------+
|                                                     Memory          Disk    |
| Baseline code, static data and system overhead       37.0 MB         0.0 MB |
| BLAS internal memory storage                          0.0 MB         0.0 MB |
| Model and support data                             1068.4 MB         0.0 MB |
| Electronic energy minimisation requirements          56.7 MB         0.0 MB |
| Force calculation requirements                       59.8 MB         0.0 MB |
|                                               ----------------------------- |
| Approx. total storage required per process         1165.2 MB         0.0 MB |
|                                                                             |
| Requirements will fluctuate during execution and may exceed these estimates |
+-----------------------------------------------------------------------------+
Calculating finite basis set correction with  3 cut-off energies.
Calculating total energy with cut-off of  991.379 eV.
------------------------------------------------------------------------ <-- SCF
SCF loop      Energy           Fermi           Energy gain       Timer   <-- SCF
                               energy          per atom          (sec)   <-- SCF
------------------------------------------------------------------------ <-- SCF
Initial  -1.54486855E+003  0.00000000E+000                        14.51  <-- SCF
      1  -1.79489428E+003  6.14894936E+000   1.25012861E+002      19.25  <-- SCF
      2  -1.83116348E+003  2.19467707E+000   1.81346021E+001      22.60  <-- SCF
      3  -1.83228532E+003  2.40795117E+000   5.60919393E-001      25.55  <-- SCF
      4  -1.83019572E+003  3.80561773E+000  -1.04480158E+000      32.55  <-- SCF
      5  -1.83172528E+003  5.45414855E+000   7.64783073E-001      39.52  <-- SCF
      6  -1.83114400E+003  5.09609753E+000  -2.90641650E-001      46.48  <-- SCF
      7  -1.82999045E+003  3.94542462E+000  -5.76774982E-001      53.46  <-- SCF
      8  -1.82985838E+003  3.72236705E+000  -6.60331583E-002      60.41  <-- SCF
      9  -1.82985840E+003  3.79396978E+000   9.73991540E-006      67.35  <-- SCF
     10  -1.82995265E+003  4.01574196E+000   4.71238304E-002      74.36  <-- SCF
     11  -1.83009678E+003  3.72856829E+000   7.20650269E-002      81.30  <-- SCF
     12  -1.83018174E+003  3.74970802E+000   4.24797975E-002      88.21  <-- SCF
     13  -1.83018327E+003  3.71047672E+000   7.65142158E-004      95.16  <-- SCF
     14  -1.83018396E+003  3.71890709E+000   3.46728061E-004     102.11  <-- SCF
     15  -1.83018510E+003  3.72574039E+000   5.68944358E-004     109.08  <-- SCF
     16  -1.83018514E+003  3.72832675E+000   1.81292494E-005     115.22  <-- SCF
     17  -1.83018514E+003  3.72597852E+000   5.26047010E-007     120.74  <-- SCF
     18  -1.83018514E+003  3.72618980E+000   3.04386072E-007     126.27  <-- SCF
------------------------------------------------------------------------ <-- SCF
 
Integrated Spin Density     =     1.98814     hbar/2                        
Integrated |Spin Density|   =     2.02787     hbar/2                        
 
Final energy, E             =  -1830.181823596     eV
Final free energy (E-TS)    =  -1830.185139903     eV
(energies not corrected for finite basis set)
 
NB est. 0K energy (E-0.5TS)      =  -1830.183481750     eV
 
Calculating total energy with cut-off of  996.379 eV.
------------------------------------------------------------------------ <-- SCF
SCF loop      Energy           Fermi           Energy gain       Timer   <-- SCF
                               energy          per atom          (sec)   <-- SCF
------------------------------------------------------------------------ <-- SCF
Initial  -1.83018182E+003  0.00000000E+000                       132.37  <-- SCF
      1  -1.83018516E+003  3.72749910E+000   1.66592363E-003     135.76  <-- SCF
      2  -1.83018516E+003  3.72749910E+000   1.16745774E-008     141.29  <-- SCF
      3  -1.83018516E+003  3.72504768E+000   8.13016247E-007     146.81  <-- SCF
      4  -1.83018516E+003  3.72945392E+000   3.32553298E-006     152.33  <-- SCF
------------------------------------------------------------------------ <-- SCF
 
Integrated Spin Density     =     1.98804     hbar/2                        
Integrated |Spin Density|   =     2.02758     hbar/2                        
 
Final energy, E             =  -1830.181908927     eV
Final free energy (E-TS)    =  -1830.185163460     eV
(energies not corrected for finite basis set)
 
NB est. 0K energy (E-0.5TS)      =  -1830.183536193     eV
 
Calculating total energy with cut-off of 1001.379 eV.
------------------------------------------------------------------------ <-- SCF
SCF loop      Energy           Fermi           Energy gain       Timer   <-- SCF
                               energy          per atom          (sec)   <-- SCF
------------------------------------------------------------------------ <-- SCF
Initial  -1.83018187E+003  0.00000000E+000                       158.40  <-- SCF
      1  -1.83018529E+003  3.71677326E+000   1.71010238E-003     162.46  <-- SCF
      2  -1.83018529E+003  3.71677324E+000   1.12006415E-007     168.07  <-- SCF
      3  -1.83018549E+003  3.74271851E+000   1.03056158E-004     174.82  <-- SCF
      4  -1.83018516E+003  3.72537395E+000  -1.67218666E-004     181.51  <-- SCF
      5  -1.83018517E+003  3.72614463E+000   5.47758058E-006     186.87  <-- SCF
      6  -1.83018517E+003  3.72646537E+000  -7.44767891E-007     192.23  <-- SCF
------------------------------------------------------------------------ <-- SCF
 
Integrated Spin Density     =     1.98798     hbar/2                        
Integrated |Spin Density|   =     2.02756     hbar/2                        
 
Final energy, E             =  -1830.181880734     eV
Final free energy (E-TS)    =  -1830.185166881     eV
(energies not corrected for finite basis set)
 
NB est. 0K energy (E-0.5TS)      =  -1830.183523808     eV
 
 For future reference: finite basis dEtot/dlog(Ecut) =      -0.002866eV
 Total energy corrected for finite basis set =   -1830.185166 eV
 
+---------------- MEMORY AND SCRATCH DISK ESTIMATES PER PROCESS --------------+
|                                                     Memory          Disk    |
| Model and support data                             1056.0 MB         0.0 MB |
| Electronic energy minimisation requirements          56.7 MB         0.0 MB |
| Geometry minimisation requirements                   75.3 MB         0.0 MB |
|                                               ----------------------------- |
| Approx. total storage required per process         1188.0 MB         0.0 MB |
|                                                                             |
| Requirements will fluctuate during execution and may exceed these estimates |
+-----------------------------------------------------------------------------+
 
 
 *********** Symmetrised Stress Tensor ***********
 *                                               *
 *          Cartesian components (GPa)           *
 * --------------------------------------------- *
 *             x             y             z     *
 *                                               *
 *  x      5.264593      0.000000     -0.000000  *
 *  y      0.000000      5.264593      0.000000  *
 *  z     -0.000000      0.000000      4.961126  *
 *                                               *
 *  Pressure:   -5.1634                          *
 *                                               *
 *************************************************
 LBFGS: finished iteration     0 with enthalpy= -1.83018517E+003 eV
  
 +-----------+-----------------+-----------------+------------+-----+ <-- LBFGS
 | Parameter |      value      |    tolerance    |    units   | OK? | <-- LBFGS
 +-----------+-----------------+-----------------+------------+-----+ <-- LBFGS
 |  dE/ion   |   0.000000E+000 |   2.000000E-005 |         eV | No  | <-- LBFGS
 |   Smax    |   5.264593E+000 |   1.000000E-001 |        GPa | No  | <-- LBFGS
 +-----------+-----------------+-----------------+------------+-----+ <-- LBFGS
  

================================================================================
 Starting LBFGS iteration          1 ...
================================================================================
  
 +------------+-------------+-------------+-----------------+ <-- min LBFGS
 |    Step    |   lambda    |   F.delta'  |    enthalpy     | <-- min LBFGS
 +------------+-------------+-------------+-----------------+ <-- min LBFGS
 |  previous  |    0.000000 |    0.038692 |    -1830.185166 | <-- min LBFGS
 +------------+-------------+-------------+-----------------+ <-- min LBFGS
  

--------------------------------------------------------------------------------
 LBFGS: starting iteration         1 with trial guess (lambda=  1.000000)
--------------------------------------------------------------------------------
 
                           -------------------------------
                                      Unit Cell
                           -------------------------------
        Real Lattice(A)              Reciprocal Lattice(1/A)
     1.7199656    -0.0000000     2.4279344        2.435391809   0.000000000   0.862624270
    -0.8599828     1.4895339     2.4279344       -1.217695905   2.109111175   0.862624270
    -0.8599828    -1.4895339     2.4279344       -1.217695905  -2.109111175   0.862624270
 
                       Lattice parameters(A)       Cell Angles
                    a =      2.975424          alpha =   60.081042
                    b =      2.975424          beta  =   60.081042
                    c =      2.975424          gamma =   60.081042
 
                Current cell volume =            18.660719 A**3
                            density =             4.002675 amu/A**3
                                    =             6.646599 g/cm^3
 
------------------------------------------------------------------------ <-- SCF
SCF loop      Energy           Fermi           Energy gain       Timer   <-- SCF
                               energy          per atom          (sec)   <-- SCF
------------------------------------------------------------------------ <-- SCF
Initial  -1.83016201E+003  0.00000000E+000                       218.04  <-- SCF
      1  -1.83021803E+003  4.19315937E+000   2.80103979E-002     222.19  <-- SCF
      2  -1.83021817E+003  4.19315340E+000   6.85222521E-005     228.79  <-- SCF
      3  -1.83021022E+003  3.58422223E+000  -3.97141741E-003     235.50  <-- SCF
      4  -1.83019172E+003  3.82750412E+000  -9.25262971E-003     242.20  <-- SCF
      5  -1.83019116E+003  3.84016115E+000  -2.78580920E-004     248.92  <-- SCF
      6  -1.83019026E+003  3.84087006E+000  -4.49757664E-004     255.62  <-- SCF
      7  -1.83019028E+003  3.84193454E+000   1.06892596E-005     261.54  <-- SCF
      8  -1.83019030E+003  3.84215579E+000   6.85751462E-006     266.92  <-- SCF
      9  -1.83019030E+003  3.84247976E+000   3.33724313E-006     272.28  <-- SCF
     10  -1.83019031E+003  3.84265996E+000   1.10531552E-007     277.69  <-- SCF
------------------------------------------------------------------------ <-- SCF
 
Integrated Spin Density     =     1.98497     hbar/2                        
Integrated |Spin Density|   =     2.02433     hbar/2                        
 
Final energy, E             =  -1830.186382818     eV
Final free energy (E-TS)    =  -1830.190305043     eV
(energies not corrected for finite basis set)
 
NB est. 0K energy (E-0.5TS)      =  -1830.188343930     eV
 
 
 *********** Symmetrised Stress Tensor ***********
 *                                               *
 *          Cartesian components (GPa)           *
 * --------------------------------------------- *
 *             x             y             z     *
 *                                               *
 *  x      3.331422     -0.000000     -0.000000  *
 *  y     -0.000000      3.331422      0.000000  *
 *  z     -0.000000      0.000000      3.059394  *
 *                                               *
 *  Pressure:   -3.2407                          *
 *                                               *
 *************************************************
  
 +------------+-------------+-------------+-----------------+ <-- min LBFGS
 |    Step    |   lambda    |   F.delta'  |    enthalpy     | <-- min LBFGS
 +------------+-------------+-------------+-----------------+ <-- min LBFGS
 |  previous  |    0.000000 |    0.038692 |    -1830.185166 | <-- min LBFGS
 | trial step |    1.000000 |    0.024126 |    -1830.190304 | <-- min LBFGS
 +------------+-------------+-------------+-----------------+ <-- min LBFGS
  

--------------------------------------------------------------------------------
 LBFGS: improving iteration         1 with line minimization (lambda=  2.656244)
--------------------------------------------------------------------------------
 
                           -------------------------------
                                      Unit Cell
                           -------------------------------
        Real Lattice(A)              Reciprocal Lattice(1/A)
     1.7099323    -0.0000000     2.4145903        2.449681880   0.000000000   0.867391512
    -0.8549662     1.4808448     2.4145903       -1.224840940   2.121486739   0.867391512
    -0.8549662    -1.4808448     2.4145903       -1.224840940  -2.121486739   0.867391512
 
                       Lattice parameters(A)       Cell Angles
                    a =      2.958735          alpha =   60.066072
                    b =      2.958735          beta  =   60.066072
                    c =      2.958735          gamma =   60.066072
 
                Current cell volume =            18.342274 A**3
                            density =             4.072167 amu/A**3
                                    =             6.761992 g/cm^3
 
------------------------------------------------------------------------ <-- SCF
SCF loop      Energy           Fermi           Energy gain       Timer   <-- SCF
                               energy          per atom          (sec)   <-- SCF
------------------------------------------------------------------------ <-- SCF
Initial  -1.83012034E+003  0.00000000E+000                       303.14  <-- SCF
      1  -1.83026928E+003  4.62128724E+000   7.44698711E-002     307.26  <-- SCF
      2  -1.83026965E+003  4.62127186E+000   1.84371258E-004     313.95  <-- SCF
      3  -1.83024893E+003  3.61786675E+000  -1.03603824E-002     320.63  <-- SCF
      4  -1.83019746E+003  4.01701634E+000  -2.57325017E-002     327.29  <-- SCF
      5  -1.83019533E+003  4.03572064E+000  -1.06826772E-003     333.97  <-- SCF
      6  -1.83019316E+003  4.03621383E+000  -1.08117113E-003     340.63  <-- SCF
      7  -1.83019322E+003  4.03783936E+000   2.90212705E-005     347.17  <-- SCF
      8  -1.83019326E+003  4.03875429E+000   1.84666762E-005     352.83  <-- SCF
      9  -1.83019328E+003  4.03929061E+000   9.16719696E-006     358.15  <-- SCF
     10  -1.83019328E+003  4.03928705E+000   2.27794147E-007     363.48  <-- SCF
------------------------------------------------------------------------ <-- SCF
 
Integrated Spin Density     =     1.97859     hbar/2                        
Integrated |Spin Density|   =     2.01737     hbar/2                        
 
Final energy, E             =  -1830.188138890     eV
Final free energy (E-TS)    =  -1830.193278169     eV
(energies not corrected for finite basis set)
 
NB est. 0K energy (E-0.5TS)      =  -1830.190708530     eV
 
 
 *********** Symmetrised Stress Tensor ***********
 *                                               *
 *          Cartesian components (GPa)           *
 * --------------------------------------------- *
 *             x             y             z     *
 *                                               *
 *  x     -0.248748      0.000000      0.000000  *
 *  y      0.000000     -0.248748      0.000000  *
 *  z      0.000000      0.000000     -0.466822  *
 *                                               *
 *  Pressure:    0.3214                          *
 *                                               *
 *************************************************
  
 +------------+-------------+-------------+-----------------+ <-- min LBFGS
 |    Step    |   lambda    |   F.delta'  |    enthalpy     | <-- min LBFGS
 +------------+-------------+-------------+-----------------+ <-- min LBFGS
 |  previous  |    0.000000 |    0.038692 |    -1830.185166 | <-- min LBFGS
 | trial step |    1.000000 |    0.024126 |    -1830.190304 | <-- min LBFGS
 |  line step |    2.656244 |   -0.002342 |    -1830.193278 | <-- min LBFGS
 +------------+-------------+-------------+-----------------+ <-- min LBFGS
  
 LBFGS: finished iteration     1 with enthalpy= -1.83019328E+003 eV
  
 +-----------+-----------------+-----------------+------------+-----+ <-- LBFGS
 | Parameter |      value      |    tolerance    |    units   | OK? | <-- LBFGS
 +-----------+-----------------+-----------------+------------+-----+ <-- LBFGS
 |  dE/ion   |   4.055981E-003 |   2.000000E-005 |         eV | No  | <-- LBFGS
 |   Smax    |   4.668218E-001 |   1.000000E-001 |        GPa | No  | <-- LBFGS
 +-----------+-----------------+-----------------+------------+-----+ <-- LBFGS
  

================================================================================
 Starting LBFGS iteration          2 ...
================================================================================
  
 +------------+-------------+-------------+-----------------+ <-- min LBFGS
 |    Step    |   lambda    |   F.delta'  |    enthalpy     | <-- min LBFGS
 +------------+-------------+-------------+-----------------+ <-- min LBFGS
 |  previous  |    0.000000 |    0.002429 |    -1830.193278 | <-- min LBFGS
 +------------+-------------+-------------+-----------------+ <-- min LBFGS
  

--------------------------------------------------------------------------------
 LBFGS: starting iteration         2 with trial guess (lambda=  1.000000)
--------------------------------------------------------------------------------
 
                           -------------------------------
                                      Unit Cell
                           -------------------------------
        Real Lattice(A)              Reciprocal Lattice(1/A)
     1.7107675    -0.0000000     2.4160502        2.448485890   0.000000000   0.866867374
    -0.8553838     1.4815682     2.4160502       -1.224242945   2.120450981   0.866867374
    -0.8553838    -1.4815682     2.4160502       -1.224242945  -2.120450981   0.866867374
 
                       Lattice parameters(A)       Cell Angles
                    a =      2.960409          alpha =   60.060949
                    b =      2.960409          beta  =   60.060949
                    c =      2.960409          gamma =   60.060949
 
                Current cell volume =            18.371298 A**3
                            density =             4.065733 amu/A**3
                                    =             6.751309 g/cm^3
 
------------------------------------------------------------------------ <-- SCF
SCF loop      Energy           Fermi           Energy gain       Timer   <-- SCF
                               energy          per atom          (sec)   <-- SCF
------------------------------------------------------------------------ <-- SCF
Initial  -1.83018757E+003  0.00000000E+000                       389.67  <-- SCF
      1  -1.83019397E+003  3.96685976E+000   3.19841623E-003     393.95  <-- SCF
      2  -1.83019397E+003  3.96685962E+000   1.52120066E-006     399.48  <-- SCF
      3  -1.83019385E+003  4.06299343E+000  -6.20767545E-005     406.42  <-- SCF
      4  -1.83019333E+003  4.02384814E+000  -2.57608797E-004     413.28  <-- SCF
      5  -1.83019332E+003  4.02140494E+000  -5.57965797E-006     419.75  <-- SCF
      6  -1.83019330E+003  4.02126384E+000  -8.90160666E-006     425.32  <-- SCF
      7  -1.83019330E+003  4.02114220E+000   1.43795426E-007     430.86  <-- SCF
------------------------------------------------------------------------ <-- SCF
 
Integrated Spin Density     =     1.97935     hbar/2                        
Integrated |Spin Density|   =     2.01806     hbar/2                        
 
Final energy, E             =  -1830.188263237     eV
Final free energy (E-TS)    =  -1830.193302779     eV
(energies not corrected for finite basis set)
 
NB est. 0K energy (E-0.5TS)      =  -1830.190783008     eV
 
 
 *********** Symmetrised Stress Tensor ***********
 *                                               *
 *          Cartesian components (GPa)           *
 * --------------------------------------------- *
 *             x             y             z     *
 *                                               *
 *  x      0.091015      0.000000      0.000000  *
 *  y      0.000000      0.091015      0.000000  *
 *  z      0.000000      0.000000     -0.110251  *
 *                                               *
 *  Pressure:   -0.0239                          *
 *                                               *
 *************************************************
  
 +------------+-------------+-------------+-----------------+ <-- min LBFGS
 |    Step    |   lambda    |   F.delta'  |    enthalpy     | <-- min LBFGS
 +------------+-------------+-------------+-----------------+ <-- min LBFGS
 |  previous  |    0.000000 |    0.002429 |    -1830.193278 | <-- min LBFGS
 | trial step |    1.000000 |   -0.000103 |    -1830.193302 | <-- min LBFGS
 +------------+-------------+-------------+-----------------+ <-- min LBFGS
  
 LBFGS: finished iteration     2 with enthalpy= -1.83019330E+003 eV
  
 +-----------+-----------------+-----------------+------------+-----+ <-- LBFGS
 | Parameter |      value      |    tolerance    |    units   | OK? | <-- LBFGS
 +-----------+-----------------+-----------------+------------+-----+ <-- LBFGS
 |  dE/ion   |   1.201539E-005 |   2.000000E-005 |         eV | Yes | <-- LBFGS
 |   Smax    |   1.102509E-001 |   1.000000E-001 |        GPa | No  | <-- LBFGS
 +-----------+-----------------+-----------------+------------+-----+ <-- LBFGS
  

================================================================================
 Starting LBFGS iteration          3 ...
================================================================================
  
 +------------+-------------+-------------+-----------------+ <-- min LBFGS
 |    Step    |   lambda    |   F.delta'  |    enthalpy     | <-- min LBFGS
 +------------+-------------+-------------+-----------------+ <-- min LBFGS
 |  previous  |    0.000000 |    0.000717 |    -1830.193302 | <-- min LBFGS
 +------------+-------------+-------------+-----------------+ <-- min LBFGS
  

--------------------------------------------------------------------------------
 LBFGS: starting iteration         3 with trial guess (lambda=  1.000000)
--------------------------------------------------------------------------------
 
                           -------------------------------
                                      Unit Cell
                           -------------------------------
        Real Lattice(A)              Reciprocal Lattice(1/A)
     1.7106519    -0.0000000     2.4162107        2.448651415   0.000000000   0.866809813
    -0.8553260     1.4814680     2.4162107       -1.224325708   2.120594331   0.866809813
    -0.8553260    -1.4814680     2.4162107       -1.224325708  -2.120594331   0.866809813
 
                       Lattice parameters(A)       Cell Angles
                    a =      2.960474          alpha =   60.055037
                    b =      2.960474          beta  =   60.055037
                    c =      2.960474          gamma =   60.055037
 
                Current cell volume =            18.370034 A**3
                            density =             4.066013 amu/A**3
                                    =             6.751773 g/cm^3
 
------------------------------------------------------------------------ <-- SCF
SCF loop      Energy           Fermi           Energy gain       Timer   <-- SCF
                               energy          per atom          (sec)   <-- SCF
------------------------------------------------------------------------ <-- SCF
Initial  -1.83018826E+003  0.00000000E+000                       457.26  <-- SCF
      1  -1.83019331E+003  4.02442066E+000   2.52416583E-003     460.11  <-- SCF
      2  -1.83019331E+003  4.02442061E+000   2.60634201E-007     465.63  <-- SCF
      3  -1.83019331E+003  4.01947588E+000   5.56542133E-007     471.15  <-- SCF
      4  -1.83019331E+003  4.02155820E+000  -1.46785716E-006     476.69  <-- SCF
------------------------------------------------------------------------ <-- SCF
 
Integrated Spin Density     =     1.97939     hbar/2                        
Integrated |Spin Density|   =     2.01815     hbar/2                        
 
Final energy, E             =  -1830.188273165     eV
Final free energy (E-TS)    =  -1830.193305930     eV
(energies not corrected for finite basis set)
 
NB est. 0K energy (E-0.5TS)      =  -1830.190789547     eV
 
 
 *********** Symmetrised Stress Tensor ***********
 *                                               *
 *          Cartesian components (GPa)           *
 * --------------------------------------------- *
 *             x             y             z     *
 *                                               *
 *  x      0.050705     -0.000000      0.000000  *
 *  y     -0.000000      0.050705      0.000000  *
 *  z      0.000000      0.000000     -0.108078  *
 *                                               *
 *  Pressure:    0.0022                          *
 *                                               *
 *************************************************
  
 +------------+-------------+-------------+-----------------+ <-- min LBFGS
 |    Step    |   lambda    |   F.delta'  |    enthalpy     | <-- min LBFGS
 +------------+-------------+-------------+-----------------+ <-- min LBFGS
 |  previous  |    0.000000 |    0.000717 |    -1830.193302 | <-- min LBFGS
 | trial step |    1.000000 |    0.000512 |    -1830.193305 | <-- min LBFGS
 +------------+-------------+-------------+-----------------+ <-- min LBFGS
  

--------------------------------------------------------------------------------
 LBFGS: improving iteration         3 with line minimization (lambda=  3.507745)
--------------------------------------------------------------------------------
 
                           -------------------------------
                                      Unit Cell
                           -------------------------------
        Real Lattice(A)              Reciprocal Lattice(1/A)
     1.7103619    -0.0000000     2.4166130        2.449066610   0.000000000   0.866665498
    -0.8551809     1.4812168     2.4166130       -1.224533305   2.120953900   0.866665498
    -0.8551809    -1.4812168     2.4166130       -1.224533305  -2.120953900   0.866665498
 
                       Lattice parameters(A)       Cell Angles
                    a =      2.960634          alpha =   60.040211
                    b =      2.960634          beta  =   60.040211
                    c =      2.960634          gamma =   60.040211
 
                Current cell volume =            18.366864 A**3
                            density =             4.066715 amu/A**3
                                    =             6.752939 g/cm^3
 
------------------------------------------------------------------------ <-- SCF
SCF loop      Energy           Fermi           Energy gain       Timer   <-- SCF
                               energy          per atom          (sec)   <-- SCF
------------------------------------------------------------------------ <-- SCF
Initial  -1.83018823E+003  0.00000000E+000                       503.14  <-- SCF
      1  -1.83019332E+003  4.02985043E+000   2.54284607E-003     507.30  <-- SCF
      2  -1.83019332E+003  4.02985041E+000   7.68262637E-008     512.82  <-- SCF
      3  -1.83019332E+003  4.01943788E+000  -1.94243885E-006     518.48  <-- SCF
      4  -1.83019331E+003  4.02355289E+000  -2.17733701E-006     524.01  <-- SCF
------------------------------------------------------------------------ <-- SCF
 
Integrated Spin Density     =     1.97945     hbar/2                        
Integrated |Spin Density|   =     2.01818     hbar/2                        
 
Final energy, E             =  -1830.188275997     eV
Final free energy (E-TS)    =  -1830.193311013     eV
(energies not corrected for finite basis set)
 
NB est. 0K energy (E-0.5TS)      =  -1830.190793505     eV
 
 
 *********** Symmetrised Stress Tensor ***********
 *                                               *
 *          Cartesian components (GPa)           *
 * --------------------------------------------- *
 *             x             y             z     *
 *                                               *
 *  x      0.040099      0.000000     -0.000000  *
 *  y      0.000000      0.040099      0.000000  *
 *  z     -0.000000      0.000000     -0.073957  *
 *                                               *
 *  Pressure:   -0.0021                          *
 *                                               *
 *************************************************
  
 +------------+-------------+-------------+-----------------+ <-- min LBFGS
 |    Step    |   lambda    |   F.delta'  |    enthalpy     | <-- min LBFGS
 +------------+-------------+-------------+-----------------+ <-- min LBFGS
 |  previous  |    0.000000 |    0.000717 |    -1830.193302 | <-- min LBFGS
 | trial step |    1.000000 |    0.000512 |    -1830.193305 | <-- min LBFGS
 |  line step |    3.507745 |    0.000377 |    -1830.193310 | <-- min LBFGS
 +------------+-------------+-------------+-----------------+ <-- min LBFGS
  
 LBFGS: finished iteration     3 with enthalpy= -1.83019331E+003 eV
  
 +-----------+-----------------+-----------------+------------+-----+ <-- LBFGS
 | Parameter |      value      |    tolerance    |    units   | OK? | <-- LBFGS
 +-----------+-----------------+-----------------+------------+-----+ <-- LBFGS
 |  dE/ion   |   3.712753E-006 |   2.000000E-005 |         eV | Yes | <-- LBFGS
 |   Smax    |   7.395747E-002 |   1.000000E-001 |        GPa | Yes | <-- LBFGS
 +-----------+-----------------+-----------------+------------+-----+ <-- LBFGS
  
 LBFGS: Geometry optimization completed successfully.

================================================================================
 LBFGS: Final Configuration:
================================================================================
 
                           -------------------------------
                                      Unit Cell
                           -------------------------------
        Real Lattice(A)              Reciprocal Lattice(1/A)
     1.7103619    -0.0000000     2.4166130        2.449066610   0.000000000   0.866665498
    -0.8551809     1.4812168     2.4166130       -1.224533305   2.120953900   0.866665498
    -0.8551809    -1.4812168     2.4166130       -1.224533305  -2.120953900   0.866665498
 
                       Lattice parameters(A)       Cell Angles
                    a =      2.960634          alpha =   60.040211
                    b =      2.960634          beta  =   60.040211
                    c =      2.960634          gamma =   60.040211
 
                Current cell volume =            18.366864 A**3
                            density =             4.066715 amu/A**3
                                    =             6.752939 g/cm^3
 
 LBFGS: Final Enthalpy     = -1.83019331E+003 eV
 LBFGS: Final bulk modulus =     218.76695 GPa
 
 ******************************** Symmetrised Forces ********************************
 *                                                                                  *
 *                           Cartesian components (eV/A)                            *
 * -------------------------------------------------------------------------------- *
 *                         x                    y                    z              *
 *                                                                                  *
 * O               1      0.00000              0.00000              0.00000         *
 * Ni              1      0.00000              0.00000              0.00000         *
 *                                                                                  *
 ************************************************************************************
 
 *********** Symmetrised Stress Tensor ***********
 *                                               *
 *          Cartesian components (GPa)           *
 * --------------------------------------------- *
 *             x             y             z     *
 *                                               *
 *  x      0.040099      0.000000     -0.000000  *
 *  y      0.000000      0.040099      0.000000  *
 *  z     -0.000000      0.000000     -0.073957  *
 *                                               *
 *  Pressure:   -0.0021                          *
 *                                               *
 *************************************************
 
 Pseudo atomic calculation performed for O 2s2 2p4
 
 Converged in 22 iterations to a total energy of -430.8139 eV
 
 Pseudo atomic calculation performed for Ni 3d8 4s2
 
 Converged in 41 iterations to a total energy of -1384.0069 eV
Charge spilling parameter for spin component 1 = 0.11%
Charge spilling parameter for spin component 2 = 0.23%
 
                   Orbital Populations                  
  ---------------------------------------------------------------
     Ion    Atom   Orbital              Up        Down      Spin
  ---------------------------------------------------------------
      O     1      S                    0.951     0.910     0.041
      O     1      Px                   0.874     0.757     0.117
      O     1      Py                   0.887     0.772     0.115
      O     1      Pz                   0.881     0.765     0.116
     Ni     1      Dzz                  0.998     0.991     0.007
     Ni     1      Dzy                  0.997     0.479     0.518
     Ni     1      Dzx                  0.997     0.453     0.544
     Ni     1      Dxx-yy               0.997     0.736     0.261
     Ni     1      Dxy                  0.998     0.721     0.277
     Ni     1      S                    0.181     0.172     0.010
     Ni     1      Px                   0.087     0.099    -0.012
     Ni     1      Py                   0.065     0.070    -0.005
     Ni     1      Pz                   0.076     0.085    -0.009
  ---------------------------------------------------------------
                           Total:       8.990     7.010     1.979
  ---------------------------------------------------------------
 
     Atomic Populations (Mulliken)
     -----------------------------
Species          Ion Spin      s      p      d      f     Total  Charge(e)   Spin(hbar/2)
=========================================================================================
  O               1   up:     0.95   2.64   0.00   0.00   3.59    -0.80        0.39
                  1   dn:     0.91   2.29   0.00   0.00   3.20
  Ni              1   up:     0.18   0.23   4.99   0.00   5.40     0.80        1.59
                  1   dn:     0.17   0.25   3.38   0.00   3.81
=========================================================================================
 
                 Bond                   Population        Spin       Length (A)
================================================================================
               O 1 -- Ni 1                   1.10        -0.12          2.09412
================================================================================
 

Writing analysis data to NiO.castep_bin

Writing model to NiO.check
 
 A BibTeX formatted list of references used in this run has been written to 
 NiO.bib
 
Initialisation time =     10.17 s
Calculation time    =    541.46 s
Finalisation time   =      1.68 s
Total time          =    553.31 s
Peak Memory Use     = 2014504 kB
