 +-------------------------------------------------+
 |                                                 |
 |      CCC   AA    SSS  TTTTT  EEEEE  PPPP        |
 |     C     A  A  S       T    E      P   P       |
 |     C     AAAA   SS     T    EEE    PPPP        |
 |     C     A  A     S    T    E      P           |
 |      CCC  A  A  SSS     T    EEEEE  P           |
 |                                                 |
 +-------------------------------------------------+
 |                                                 |
 | Welcome to Academic Release CASTEP version 20.1 |          
 | Ab Initio Total Energy Program                  |
 |                                                 |
 | Authors:                                        |
 | M. Segall, M. Probert, C. Pickard, P. Hasnip,   |
 | S. Clark, K. Refson, J. R. Yates, M. Payne      |
 |                                                 |
 | Contributors:                                   |
 | P. Lindan, P. Haynes, J. White, V. Milman,      |
 | N. Govind, M. Gibson, P. Tulip, V. Cocula,      |
 | B. Montanari, D. Quigley, M. Glover,            |
 | L. Bernasconi, A. Perlov, M. Plummer,           |
 | E. McNellis, J. Meyer, J. Gale, D. Jochym       |
 | J. Aarons, B. Walker, R. Gillen, D. Jones       |
 | T. Green, I. J. Bush, C. J. Armstrong,          |
 | E. J. Higgins, E. L. Brown, M. S. McFly,        |
 | J. Wilkins, B-C. Shih, P. J. P. Byrne,          |
 | R. J. Maurer, J. C. Womack, A. Bartok-Partay    |
 |                                                 |
 | Copyright (c) 2000 - 2019                       |
 |                                                 |
 |     Distributed under the terms of an           |
 |     Agreement between the United Kingdom        |
 |     Car-Parrinello (UKCP) Consortium,           |
 |     Daresbury Laboratory and Accelrys, Inc.     |
 |                                                 |
 | Please cite                                     |
 |                                                 |
 |     "First principles methods using CASTEP"     |
 |                                                 |
 |         Zeitschrift fuer Kristallographie       |
 |           220(5-6) pp. 567-570 (2005)           |
 |                                                 |
 | S. J. Clark, M. D. Segall, C. J. Pickard,       |
 | P. J. Hasnip, M. J. Probert, K. Refson,         |
 | M. C. Payne                                     |
 |                                                 |
 |       in all publications arising from          |
 |              your use of CASTEP                 |
 |                                                 |
 +-------------------------------------------------+
 |                                                 |
 |              http://www.castep.org              |
 |                                                 |
 +-------------------------------------------------+
 
 
 
 Compiled for linux_x86_64_ifort17 on Mon, 15 Jul 2019 14:09:47 +0100
 from code version 5dacc5c3c63b+  Mon, 10 Jun 2019 22:27:09 +0100
 Compiler: Intel Fortran 17.0.1.132; Optimisation: fast
 MATHLIBS: Intel MKL(2017.0.1) (LAPACK version 3.6.0)
 FFT Lib : mkl
 Fundamental constants values: CODATA 2014
 
 Run started: Mon, 29 Jul 2019 13:54:16 +0100
 Info: number of up-spin electrons is equal to the
       number of down-spins and spin_polarized=true
     - consider setting spin_polarized=false.
 
 Atomic calculation performed for Fe: 1s2 2s2 2p6 3s2 3p6 3d6 4s2
 
 Exceeded max iterations: converged to -0.000033669 eV
 The ae energy is -34636.703 eV
 
   ============================================================                
   | Pseudopotential Report - Date of generation 29-07-2019   |                
   ------------------------------------------------------------                
   | Element: Fe Ionic charge:  8.00 Level of theory: RSCAN   |                
   | Atomic Solver: Koelling-Harmon                           |                
   |                                                          |                
   |               Reference Electronic Structure             |                
   |         Orbital         Occupation         Energy        |                
   |            3d              6.000           -0.282        |                
   |            4s              2.000           -0.202        |                
   |                                                          |                
   |                 Pseudopotential Definition               |                
   |        Beta     l      e      Rc     scheme   norm       |                
   |          1      0   -0.202   2.399     qc      0         |                
   |          2      0    0.250   2.399     qc      0         |                
   |          3      1    0.000   2.399     qc      0         |                
   |          4      1    0.250   2.399     qc      0         |                
   |          5      2   -0.282   1.997     qc      0         |                
   |          6      2    0.250   1.997     qc      0         |                
   |         loc     3    0.000   2.399     pn      0         |                
   |                                                          |                
   | Augmentation charge Rinner = 1.000                       |                
   | Partial core correction Rc = 1.000                       |                
   ------------------------------------------------------------                
   | "3|2.4|2.4|1.0|8|9|10|40:41:32U2U2(qc=5.5)"              |                
   ------------------------------------------------------------                
   |      Author: Chris J. Pickard, Cambridge University      |                
   ============================================================                
 
 Pseudo atomic calculation performed for Fe 3d6 4s2
 
 Converged in 32 iterations to a total energy of -867.1159 eV
 Calculation not parallelised.

 ************************************ Title ************************************
 

 ***************************** General Parameters ******************************
  
 output verbosity                               : normal  (1)
 write checkpoint data to                       : Fe.check
 type of calculation                            : geometry optimization
 stress calculation                             : off
 density difference calculation                 : off
 electron localisation func (ELF) calculation   : off
 Hirshfeld analysis                             : off
 molecular orbital projected DOS                : off
 deltaSCF calculation                           : off
 unlimited duration calculation
 timing information                             : on
 memory usage estimate                          : on
 write extra output files                       : on
 write final potential to formatted file        : off
 write final density to formatted file          : off
 write BibTeX reference list                    : on
 write OTFG pseudopotential files               : on
 write electrostatic potential file             : on
 write bands file                               : on
 checkpoint writing                             : both castep_bin and check files
  
 output         length unit                     : A
 output           mass unit                     : amu
 output           time unit                     : ps
 output         charge unit                     : e
 output           spin unit                     : hbar/2
 output         energy unit                     : eV
 output          force unit                     : eV/A
 output       velocity unit                     : A/ps
 output       pressure unit                     : GPa
 output     inv_length unit                     : 1/A
 output      frequency unit                     : cm-1
 output force constant unit                     : eV/A**2
 output         volume unit                     : A**3
 output   IR intensity unit                     : (D/A)**2/amu
 output         dipole unit                     : D
 output         efield unit                     : eV/A/e
 output        entropy unit                     : J/mol/K
  
 wavefunctions paging                           : none
 random number generator seed                   : randomised (135442956)
 data distribution                              : optimal for this architecture
 optimization strategy                          : maximize speed(+++)

 *********************** Exchange-Correlation Parameters ***********************
  
 using functional                               : RSCAN
 relativistic treatment                         : Koelling-Harmon
 DFT+D: Semi-empirical dispersion correction    : off

 ************************* Pseudopotential Parameters **************************
  
 pseudopotential representation                 : reciprocal space
 <beta|phi> representation                      : reciprocal space
 spin-orbit coupling                            : off

 **************************** Basis Set Parameters *****************************
  
 basis set accuracy                             : EXTREME
 plane wave basis set cut-off                   :   435.3822   eV
 size of standard grid                          :     1.7500
 size of   fine   grid                          :     4.0000
 size of   fine   gmax                          :    42.7596   1/A
 finite basis set correction                    : automatic
 number of sample energies                      :          3
           sample  spacing                      :     5.0000   eV

 **************************** Electronic Parameters ****************************
  
 number of  electrons                           :  8.000    
 net charge of system                           :  0.000    
 net spin   of system                           :  0.000    
 number of  up  spins                           :  4.000    
 number of down spins                           :  4.000    
 treating system as spin-polarized
 number of bands                                :          8

 ********************* Electronic Minimization Parameters **********************
  
 Method: Treating system as metallic with density mixing treatment of electrons,
         and number of  SD  steps               :          1
         and number of  CG  steps               :          4
  
 total energy / atom convergence tol.           : 0.1000E-04   eV
 eigen-energy convergence tolerance             : 0.1000E-05   eV
 max force / atom convergence tol.              : ignored
 convergence tolerance window                   :          3   cycles
 max. number of SCF cycles                      :         30
 number of fixed-spin iterations                :         10
 smearing scheme                                : Gaussian
 smearing width                                 : 0.2000       eV
 Fermi energy convergence tolerance             : 0.2721E-13   eV
 periodic dipole correction                     : NONE

 ************************** Density Mixing Parameters **************************
  
 density-mixing scheme                          : Broyden
 max. length of mixing history                  :         20
 charge density mixing amplitude                : 0.8000    
   spin density mixing amplitude                :  2.000    

 *********************** Population Analysis Parameters ************************
  
 Population analysis with cutoff                :  3.000       A
 Population analysis output                     : summary and pdos components

 ********************** Geometry Optimization Parameters ***********************
  
 optimization method                            : LBFGS
 max. no. of LBFGS updates                      : unbounded
 variable cell method                           : fixed basis quality
 max. number of steps                           :         30
 estimated bulk modulus                         :  500.0       GPa
 estimated <frequency>                          :  1668.       cm-1
 geom line minimiser                            : on
 with line minimiser tolerance                  :     0.4000
  with spin fully able to relax for all steps
 total energy convergence tolerance             : 0.2000E-04   eV/atom
        max ionic |force| tolerance             : 0.5000E-01   eV/A
 max ionic |displacement| tolerance             : 0.1000E-02   A
   max |stress component| tolerance             : 0.1000       GPa
 convergence tolerance window                   :          2   steps
 backup results every                           :          5   steps
 write geom trajectory file                     : on

 *******************************************************************************
  
 
                           -------------------------------
                                      Unit Cell
                           -------------------------------
        Real Lattice(A)                      Reciprocal Lattice(1/A)
    -1.4345000     1.4345000     1.4345000        0.000000000   2.190026249   2.190026249
     1.4345000    -1.4345000     1.4345000        2.190026249   0.000000000   2.190026249
     1.4345000     1.4345000    -1.4345000        2.190026249   2.190026249   0.000000000
 
                       Lattice parameters(A)       Cell Angles
                    a =      2.484627          alpha =  109.471221
                    b =      2.484627          beta  =  109.471221
                    c =      2.484627          gamma =  109.471221
 
                       Current cell volume =            11.807600       A**3
                                   density =             4.729581   AMU/A**3
                                           =             7.853654     g/cm^3
 
                           -------------------------------
                                     Cell Contents
                           -------------------------------
                         Total number of ions in cell =    1
                      Total number of species in cell =    1
                        Max number of any one species =    1
 
            xxxxxxxxxxxxxxxxxxxxxxxxxxxxxxxxxxxxxxxxxxxxxxxxxxxxxxxxxxxx
            x  Element    Atom        Fractional coordinates of atoms  x
            x            Number           u          v          w      x
            x----------------------------------------------------------x
            x  Fe           1         0.000000   0.000000   0.000000   x 
            xxxxxxxxxxxxxxxxxxxxxxxxxxxxxxxxxxxxxxxxxxxxxxxxxxxxxxxxxxxx
 
 
                         No user defined ionic velocities
 
                           -------------------------------
                                   Details of Species
                           -------------------------------
 
                               Mass of species in AMU
                                    Fe   55.8450000
 
                          Electric Quadrupole Moment (Barn)
                                    Fe    0.1600000 Isotope 57
 
                          Files used for pseudopotentials:
                                    Fe 3|2.4|2.4|1.0|8|9|10|40:41:32U2U2(qc=5.5)
 
                           -------------------------------
                              k-Points For BZ Sampling
                           -------------------------------
                       MP grid size for SCF calculation is 36 36 36
                            with an offset of   0.000  0.000  0.000
                       Number of kpoints used =          1230
 
                           -------------------------------
                               Symmetry and Constraints
                           -------------------------------
 
                      Maximum deviation from symmetry =  0.00000         ANG
 
                      Number of symmetry operations   =          48
                      Number of ionic constraints     =           3
                      Point group of crystal =    32: Oh, m-3m, 4/m -3 2/m
                      Space group of crystal =   229: Im-3m, -I 4 2 3
 
             Set iprint > 1 for details on symmetry rotations/translations
 
                         Centre of mass is constrained
             Set iprint > 1 for details of linear ionic constraints
 
                         Number of cell constraints= 5
                         Cell constraints are:  1 1 1 0 0 0
 
                         External pressure/stress (GPa)
                          0.00000   0.00000   0.00000
                                    0.00000   0.00000
                                              0.00000
  
+---------------- MEMORY AND SCRATCH DISK ESTIMATES PER PROCESS --------------+
|                                                     Memory          Disk    |
| Baseline code, static data and system overhead       53.0 MB         0.0 MB |
| BLAS internal memory storage                          0.0 MB         0.0 MB |
| Model and support data                              344.1 MB         0.0 MB |
| Electronic energy minimisation requirements         170.8 MB         0.0 MB |
| Force calculation requirements                       10.6 MB         0.0 MB |
|                                               ----------------------------- |
| Approx. total storage required per process          568.0 MB         0.0 MB |
|                                                                             |
| Requirements will fluctuate during execution and may exceed these estimates |
+-----------------------------------------------------------------------------+
Calculating finite basis set correction with  3 cut-off energies.
Calculating total energy with cut-off of  425.382 eV.
------------------------------------------------------------------------ <-- SCF
SCF loop      Energy           Fermi           Energy gain       Timer   <-- SCF
                               energy          per atom          (sec)   <-- SCF
------------------------------------------------------------------------ <-- SCF
Initial  -6.76752667E+002  0.00000000E+000                        65.59  <-- SCF
      1  -8.64578564E+002  5.06980866E+000   1.87825897E+002     101.47  <-- SCF
      2  -8.75685525E+002  3.47010117E+000   1.11069608E+001     132.49  <-- SCF
      3  -8.76544453E+002  3.41699653E+000   8.58928524E-001     171.22  <-- SCF
      4  -8.76690366E+002  1.80357645E+000   1.45912619E-001     206.01  <-- SCF
      5  -8.76436197E+002  2.67373334E+000  -2.54168776E-001     240.35  <-- SCF
      6  -8.76490620E+002  2.82362244E+000   5.44225881E-002     274.53  <-- SCF
      7  -8.76493897E+002  2.78405836E+000   3.27745092E-003     314.05  <-- SCF
      8  -8.76494170E+002  2.77667858E+000   2.72780086E-004     349.66  <-- SCF
      9  -8.76494111E+002  2.77399406E+000  -5.90939113E-005     373.39  <-- SCF
     10  -8.76494172E+002  2.78162691E+000   6.08405314E-005     398.12  <-- SCF
     11  -8.76494190E+002  2.78456399E+000   1.82957652E-005     420.06  <-- SCF
     12  -8.76494192E+002  2.77902814E+000   1.90740448E-006     441.91  <-- SCF
     13  -8.76494188E+002  2.78357310E+000  -3.73188507E-006     463.91  <-- SCF
------------------------------------------------------------------------ <-- SCF
 
Integrated Spin Density     =    0.130712E-03 hbar/2                        
Integrated |Spin Density|   =    0.130712E-03 hbar/2                        
 
Final energy, E             =  -876.4210941411     eV
Final free energy (E-TS)    =  -876.4941881420     eV
(energies not corrected for finite basis set)
 
NB est. 0K energy (E-0.5TS)      =  -876.4576411416     eV
 
Calculating total energy with cut-off of  430.382 eV.
------------------------------------------------------------------------ <-- SCF
SCF loop      Energy           Fermi           Energy gain       Timer   <-- SCF
                               energy          per atom          (sec)   <-- SCF
------------------------------------------------------------------------ <-- SCF
Initial  -8.76421106E+002  0.00000000E+000                       468.72  <-- SCF
      1  -8.76494229E+002  2.78055362E+000   7.31231013E-002     498.47  <-- SCF
      2  -8.76494229E+002  2.78055362E+000   4.45739893E-008     520.79  <-- SCF
      3  -8.76494229E+002  2.78537719E+000   7.66521533E-007     543.09  <-- SCF
      4  -8.76494232E+002  2.77820800E+000   2.59829948E-006     565.69  <-- SCF
------------------------------------------------------------------------ <-- SCF
 
Integrated Spin Density     =    0.516210E-02 hbar/2                        
Integrated |Spin Density|   =    0.516210E-02 hbar/2                        
 
Final energy, E             =  -876.4210968149     eV
Final free energy (E-TS)    =  -876.4942320220     eV
(energies not corrected for finite basis set)
 
NB est. 0K energy (E-0.5TS)      =  -876.4576644185     eV
 
Calculating total energy with cut-off of  435.382 eV.
------------------------------------------------------------------------ <-- SCF
SCF loop      Energy           Fermi           Energy gain       Timer   <-- SCF
                               energy          per atom          (sec)   <-- SCF
------------------------------------------------------------------------ <-- SCF
Initial  -8.76421102E+002  0.00000000E+000                       570.49  <-- SCF
      1  -8.76494292E+002  2.79285611E+000   7.31908308E-002     601.20  <-- SCF
      2  -8.76494293E+002  2.79285611E+000   1.14640788E-007     623.78  <-- SCF
      3  -8.76494372E+002  2.76763751E+000   7.96699926E-005     657.27  <-- SCF
      4  -8.76494829E+002  2.77724636E+000   4.56936736E-004     689.55  <-- SCF
      5  -8.76455278E+002  2.79207052E+000  -3.95510602E-002     723.64  <-- SCF
      6  -8.76482996E+002  2.77677548E+000   2.77182474E-002     756.71  <-- SCF
      7  -8.76492764E+002  2.78015922E+000   9.76765516E-003     791.05  <-- SCF
      8  -8.76493356E+002  2.78499127E+000   5.91745548E-004     822.96  <-- SCF
      9  -8.76494234E+002  2.78278984E+000   8.77949174E-004     854.29  <-- SCF
     10  -8.76494241E+002  2.78252511E+000   7.18993179E-006     877.34  <-- SCF
     11  -8.76494226E+002  2.78253305E+000  -1.43843796E-005     900.81  <-- SCF
     12  -8.76494246E+002  2.78253504E+000   1.97497073E-005     923.40  <-- SCF
     13  -8.76494245E+002  2.78257407E+000  -1.14441214E-006     945.91  <-- SCF
     14  -8.76494246E+002  2.78257606E+000   1.19375101E-006     968.42  <-- SCF
------------------------------------------------------------------------ <-- SCF
 
Integrated Spin Density     =    0.681511E-04 hbar/2                        
Integrated |Spin Density|   =    0.129329E-03 hbar/2                        
 
Final energy, E             =  -876.4211436167     eV
Final free energy (E-TS)    =  -876.4942462920     eV
(energies not corrected for finite basis set)
 
NB est. 0K energy (E-0.5TS)      =  -876.4576949543     eV
 
 For future reference: finite basis dEtot/dlog(Ecut) =      -0.002504eV
 Total energy corrected for finite basis set =    -876.494246 eV
 
+---------------- MEMORY AND SCRATCH DISK ESTIMATES PER PROCESS --------------+
|                                                     Memory          Disk    |
| Model and support data                              351.3 MB         0.0 MB |
| Electronic energy minimisation requirements         170.8 MB         0.0 MB |
| Geometry minimisation requirements                  258.8 MB         0.0 MB |
|                                               ----------------------------- |
| Approx. total storage required per process          781.0 MB         0.0 MB |
|                                                                             |
| Requirements will fluctuate during execution and may exceed these estimates |
+-----------------------------------------------------------------------------+
 
 
 *********** Symmetrised Stress Tensor ***********
 *                                               *
 *          Cartesian components (GPa)           *
 * --------------------------------------------- *
 *             x             y             z     *
 *                                               *
 *  x     32.011533      0.000000      0.000000  *
 *  y      0.000000     32.011533     -0.000000  *
 *  z      0.000000     -0.000000     32.011533  *
 *                                               *
 *  Pressure:  -32.0115                          *
 *                                               *
 *************************************************
 LBFGS: finished iteration     0 with enthalpy= -8.76494246E+002 eV
  
 +-----------+-----------------+-----------------+------------+-----+ <-- LBFGS
 | Parameter |      value      |    tolerance    |    units   | OK? | <-- LBFGS
 +-----------+-----------------+-----------------+------------+-----+ <-- LBFGS
 |  dE/ion   |   0.000000E+000 |   2.000000E-005 |         eV | No  | <-- LBFGS
 |   Smax    |   3.201153E+001 |   1.000000E-001 |        GPa | No  | <-- LBFGS
 +-----------+-----------------+-----------------+------------+-----+ <-- LBFGS
  

================================================================================
 Starting LBFGS iteration          1 ...
================================================================================
  
 +------------+-------------+-------------+-----------------+ <-- min LBFGS
 |    Step    |   lambda    |   F.delta'  |    enthalpy     | <-- min LBFGS
 +------------+-------------+-------------+-----------------+ <-- min LBFGS
 |  previous  |    0.000000 |    0.150165 |     -876.494246 | <-- min LBFGS
 +------------+-------------+-------------+-----------------+ <-- min LBFGS
  

--------------------------------------------------------------------------------
 LBFGS: starting iteration         1 with trial guess (lambda=  1.000000)
--------------------------------------------------------------------------------
 
                           -------------------------------
                                      Unit Cell
                           -------------------------------
        Real Lattice(A)              Reciprocal Lattice(1/A)
    -1.4038863     1.4038863     1.4038863        0.000000000   2.237782822   2.237782822
     1.4038863    -1.4038863     1.4038863        2.237782822   0.000000000   2.237782822
     1.4038863     1.4038863    -1.4038863        2.237782822   2.237782822   0.000000000
 
                       Lattice parameters(A)       Cell Angles
                    a =      2.431602          alpha =  109.471221
                    b =      2.431602          beta  =  109.471221
                    c =      2.431602          gamma =  109.471221
 
                Current cell volume =            11.067660 A**3
                            density =             5.045782 amu/A**3
                                    =             8.378718 g/cm^3
 
------------------------------------------------------------------------ <-- SCF
SCF loop      Energy           Fermi           Energy gain       Timer   <-- SCF
                               energy          per atom          (sec)   <-- SCF
------------------------------------------------------------------------ <-- SCF
Initial  -8.76058501E+002  0.00000000E+000                       985.56  <-- SCF
      1  -8.77547398E+002  5.32810887E+000   1.48889678E+000    1016.43  <-- SCF
      2  -8.77551149E+002  5.32793433E+000   3.75080397E-003    1057.66  <-- SCF
      3  -8.78128309E+002  5.89246661E-001   5.77160591E-001    1092.06  <-- SCF
      4  -8.76385837E+002  3.18811973E+000  -1.74247232E+000    1125.92  <-- SCF
      5  -8.76618549E+002  3.36072613E+000   2.32712164E-001    1159.19  <-- SCF
      6  -8.76619861E+002  3.29405033E+000   1.31214259E-003    1197.52  <-- SCF
      7  -8.76621666E+002  3.25449957E+000   1.80505602E-003    1230.66  <-- SCF
      8  -8.76533521E+002  3.26853852E+000  -8.81450109E-002    1264.06  <-- SCF
      9  -8.76715269E+002  3.14888006E+000   1.81747437E-001    1299.66  <-- SCF
     10  -8.76563794E+002  3.25992837E+000  -1.51475081E-001    1334.52  <-- SCF
     11  -8.76493538E+002  3.26826347E+000  -7.02554763E-002    1368.29  <-- SCF
     12  -8.76522769E+002  3.28059437E+000   2.92308985E-002    1402.57  <-- SCF
     13  -8.76675399E+002  3.25229879E+000   1.52630401E-001    1438.12  <-- SCF
     14  -8.76600356E+002  3.26706861E+000  -7.50438349E-002    1472.79  <-- SCF
     15  -8.76422349E+002  3.26981435E+000  -1.78006850E-001    1505.56  <-- SCF
     16  -8.76515864E+002  3.27148780E+000   9.35157737E-002    1538.99  <-- SCF
     17  -8.76675113E+002  3.26841025E+000   1.59248128E-001    1572.57  <-- SCF
     18  -8.76524904E+002  3.27146445E+000  -1.50209017E-001    1606.36  <-- SCF
     19  -8.76538035E+002  3.26625800E+000   1.31311394E-002    1640.75  <-- SCF
     20  -8.76515331E+002  3.27505045E+000  -2.27036635E-002    1672.85  <-- SCF
     21  -8.76540084E+002  3.28863068E+000   2.47530018E-002    1705.17  <-- SCF
     22  -8.76528945E+002  3.28213348E+000  -1.11390830E-002    1738.18  <-- SCF
     23  -8.76514800E+002  3.28298418E+000  -1.41451691E-002    1771.49  <-- SCF
     24  -8.76583973E+002  3.27457124E+000   6.91730058E-002    1806.64  <-- SCF
     25  -8.76527738E+002  3.26437452E+000  -5.62345893E-002    1840.10  <-- SCF
     26  -8.76766397E+002  3.13413915E+000   2.38658457E-001    1873.84  <-- SCF
     27  -8.76625375E+002  3.20222995E+000  -1.41021701E-001    1907.98  <-- SCF
     28  -8.76565298E+002  3.32572064E+000  -6.00770412E-002    1941.74  <-- SCF
     29  -8.76605457E+002  3.28983305E+000   4.01588304E-002    1975.92  <-- SCF
     30  -8.76541647E+002  3.24675665E+000  -6.38099489E-002    2010.65  <-- SCF
------------------------------------------------------------------------ <-- SCF
 *Warning* max. SCF cycles performed but system has not reached the groundstate.
  
Current total energy, E     =  -876.4770517931     eV
Current free energy (E-TS)  =  -876.5416467863     eV
(energies not corrected for finite basis set)
 
NB est. 0K energy (E-0.5TS)      =  -876.5093492897     eV
 
  ****************************************************************************
  WARNING: electronic minimisation did not converge when finding ground state.
  ****************************************************************************

Writing analysis data to Fe.castep_bin

Writing model to Fe.check
