 +-------------------------------------------------+
 |                                                 |
 |      CCC   AA    SSS  TTTTT  EEEEE  PPPP        |
 |     C     A  A  S       T    E      P   P       |
 |     C     AAAA   SS     T    EEE    PPPP        |
 |     C     A  A     S    T    E      P           |
 |      CCC  A  A  SSS     T    EEEEE  P           |
 |                                                 |
 +-------------------------------------------------+
 |                                                 |
 | Welcome to Academic Release CASTEP version 20.1 |          
 | Ab Initio Total Energy Program                  |
 |                                                 |
 | Authors:                                        |
 | M. Segall, M. Probert, C. Pickard, P. Hasnip,   |
 | S. Clark, K. Refson, J. R. Yates, M. Payne      |
 |                                                 |
 | Contributors:                                   |
 | P. Lindan, P. Haynes, J. White, V. Milman,      |
 | N. Govind, M. Gibson, P. Tulip, V. Cocula,      |
 | B. Montanari, D. Quigley, M. Glover,            |
 | L. Bernasconi, A. Perlov, M. Plummer,           |
 | E. McNellis, J. Meyer, J. Gale, D. Jochym       |
 | J. Aarons, B. Walker, R. Gillen, D. Jones       |
 | T. Green, I. J. Bush, C. J. Armstrong,          |
 | E. J. Higgins, E. L. Brown, M. S. McFly,        |
 | J. Wilkins, B-C. Shih, P. J. P. Byrne,          |
 | R. J. Maurer, J. C. Womack, A. Bartok-Partay    |
 |                                                 |
 | Copyright (c) 2000 - 2019                       |
 |                                                 |
 |     Distributed under the terms of an           |
 |     Agreement between the United Kingdom        |
 |     Car-Parrinello (UKCP) Consortium,           |
 |     Daresbury Laboratory and Accelrys, Inc.     |
 |                                                 |
 | Please cite                                     |
 |                                                 |
 |     "First principles methods using CASTEP"     |
 |                                                 |
 |         Zeitschrift fuer Kristallographie       |
 |           220(5-6) pp. 567-570 (2005)           |
 |                                                 |
 | S. J. Clark, M. D. Segall, C. J. Pickard,       |
 | P. J. Hasnip, M. J. Probert, K. Refson,         |
 | M. C. Payne                                     |
 |                                                 |
 |       in all publications arising from          |
 |              your use of CASTEP                 |
 |                                                 |
 +-------------------------------------------------+
 |                                                 |
 |              http://www.castep.org              |
 |                                                 |
 +-------------------------------------------------+
 
 
 
 Compiled for linux_x86_64_ifort17 on Fri, 05 Jul 2019 11:35:54 +0100
 from code version 5dacc5c3c63b+  Mon, 10 Jun 2019 22:27:09 +0100
 Compiler: Intel Fortran 17.0.1.132; Optimisation: fast
 MATHLIBS: Intel MKL(2017.0.1) (LAPACK version 3.6.0)
 FFT Lib : mkl
 Fundamental constants values: CODATA 2014
 
 Run started: Thu, 11 Jul 2019 14:09:31 +0100
 
 Atomic calculation performed for Si: 1s2 2s2 2p6 3s2 3p2
 
 Exceeded max iterations: converged to -0.000003471 eV
 The ae energy is -7891.741 eV
 
   ============================================================                
   | Pseudopotential Report - Date of generation 11-07-2019   |                
   ------------------------------------------------------------                
   | Element: Si Ionic charge:  4.00 Level of theory: RSCAN   |                
   | Atomic Solver: Koelling-Harmon                           |                
   |                                                          |                
   |               Reference Electronic Structure             |                
   |         Orbital         Occupation         Energy        |                
   |            3s              2.000           -0.412        |                
   |            3p              2.000           -0.154        |                
   |                                                          |                
   |                 Pseudopotential Definition               |                
   |        Beta     l      e      Rc     scheme   norm       |                
   |          1      0   -0.412   1.797     qc      0         |                
   |          2      0    0.250   1.797     qc      0         |                
   |          3      1   -0.154   1.797     qc      0         |                
   |          4      1    0.250   1.797     qc      0         |                
   |          5      2    0.000   1.797     qc      0         |                
   |          6      2    0.250   1.797     qc      0         |                
   |         loc     3    0.000   1.797     pn      0         |                
   |                                                          |                
   | Augmentation charge Rinner = 1.255                       |                
   | Partial core correction Rc = 1.255                       |                
   ------------------------------------------------------------                
   | "3|1.8|5|6|7|30:31:32"                                   |                
   ------------------------------------------------------------                
   |      Author: Chris J. Pickard, Cambridge University      |                
   ============================================================                
 
 Pseudo atomic calculation performed for Si 3s2 3p2
 
 Converged in 17 iterations to a total energy of -156.5453 eV
 Calculation not parallelised.

 ************************************ Title ************************************
 

 ***************************** General Parameters ******************************
  
 output verbosity                               : normal  (1)
 write checkpoint data to                       : Si.check
 type of calculation                            : geometry optimization
 stress calculation                             : off
 density difference calculation                 : off
 electron localisation func (ELF) calculation   : off
 Hirshfeld analysis                             : off
 molecular orbital projected DOS                : off
 deltaSCF calculation                           : off
 unlimited duration calculation
 timing information                             : on
 memory usage estimate                          : on
 write extra output files                       : on
 write final potential to formatted file        : off
 write final density to formatted file          : off
 write BibTeX reference list                    : on
 write OTFG pseudopotential files               : on
 write electrostatic potential file             : on
 write bands file                               : on
 checkpoint writing                             : both castep_bin and check files
  
 output         length unit                     : A
 output           mass unit                     : amu
 output           time unit                     : ps
 output         charge unit                     : e
 output           spin unit                     : hbar/2
 output         energy unit                     : eV
 output          force unit                     : eV/A
 output       velocity unit                     : A/ps
 output       pressure unit                     : GPa
 output     inv_length unit                     : 1/A
 output      frequency unit                     : cm-1
 output force constant unit                     : eV/A**2
 output         volume unit                     : A**3
 output   IR intensity unit                     : (D/A)**2/amu
 output         dipole unit                     : D
 output         efield unit                     : eV/A/e
 output        entropy unit                     : J/mol/K
  
 wavefunctions paging                           : none
 random number generator seed                   : randomised (140931521)
 data distribution                              : optimal for this architecture
 optimization strategy                          : maximize speed(+++)

 *********************** Exchange-Correlation Parameters ***********************
  
 using functional                               : RSCAN
 relativistic treatment                         : Koelling-Harmon
 DFT+D: Semi-empirical dispersion correction    : off

 ************************* Pseudopotential Parameters **************************
  
 pseudopotential representation                 : reciprocal space
 <beta|phi> representation                      : reciprocal space
 spin-orbit coupling                            : off

 **************************** Basis Set Parameters *****************************
  
 basis set accuracy                             : EXTREME
 plane wave basis set cut-off                   :   304.7675   eV
 size of standard grid                          :     1.7500
 size of   fine   grid                          :     4.0000
 size of   fine   gmax                          :    35.7753   1/A
 finite basis set correction                    : automatic
 number of sample energies                      :          3
           sample  spacing                      :     5.0000   eV

 **************************** Electronic Parameters ****************************
  
 number of  electrons                           :  8.000    
 net charge of system                           :  0.000    
 treating system as non-spin-polarized
 number of bands                                :          8

 ********************* Electronic Minimization Parameters **********************
  
 Method: Treating system as metallic with density mixing treatment of electrons,
         and number of  SD  steps               :          1
         and number of  CG  steps               :          4
  
 total energy / atom convergence tol.           : 0.1000E-04   eV
 eigen-energy convergence tolerance             : 0.1000E-05   eV
 max force / atom convergence tol.              : ignored
 convergence tolerance window                   :          3   cycles
 max. number of SCF cycles                      :         30
 number of fixed-spin iterations                :         10
 smearing scheme                                : Gaussian
 smearing width                                 : 0.2000       eV
 Fermi energy convergence tolerance             : 0.2721E-13   eV
 periodic dipole correction                     : NONE

 ************************** Density Mixing Parameters **************************
  
 density-mixing scheme                          : Broyden
 max. length of mixing history                  :         20
 charge density mixing amplitude                : 0.8000    

 *********************** Population Analysis Parameters ************************
  
 Population analysis with cutoff                :  3.000       A
 Population analysis output                     : summary and pdos components

 ********************** Geometry Optimization Parameters ***********************
  
 optimization method                            : LBFGS
 max. no. of LBFGS updates                      : unbounded
 variable cell method                           : fixed basis quality
 max. number of steps                           :         30
 estimated bulk modulus                         :  500.0       GPa
 estimated <frequency>                          :  1668.       cm-1
 geom line minimiser                            : on
 with line minimiser tolerance                  :     0.4000
 total energy convergence tolerance             : 0.2000E-04   eV/atom
        max ionic |force| tolerance             : 0.5000E-01   eV/A
 max ionic |displacement| tolerance             : 0.1000E-02   A
   max |stress component| tolerance             : 0.1000       GPa
 convergence tolerance window                   :          2   steps
 backup results every                           :          5   steps
 write geom trajectory file                     : on

 *******************************************************************************
  
 
                           -------------------------------
                                      Unit Cell
                           -------------------------------
        Real Lattice(A)                      Reciprocal Lattice(1/A)
     2.7152650     2.7152650     0.0000000        1.157011435   1.157011435  -1.157011435
     2.7152650     0.0000000     2.7152650        1.157011435  -1.157011435   1.157011435
     0.0000000     2.7152650     2.7152650       -1.157011435   1.157011435   1.157011435
 
                       Lattice parameters(A)       Cell Angles
                    a =      3.839965          alpha =   60.000000
                    b =      3.839965          beta  =   60.000000
                    c =      3.839965          gamma =   60.000000
 
                       Current cell volume =            40.037473       A**3
                                   density =             1.402961   AMU/A**3
                                           =             2.329671     g/cm^3
 
                           -------------------------------
                                     Cell Contents
                           -------------------------------
                         Total number of ions in cell =    2
                      Total number of species in cell =    1
                        Max number of any one species =    2
 
            xxxxxxxxxxxxxxxxxxxxxxxxxxxxxxxxxxxxxxxxxxxxxxxxxxxxxxxxxxxx
            x  Element    Atom        Fractional coordinates of atoms  x
            x            Number           u          v          w      x
            x----------------------------------------------------------x
            x  Si           1         0.000000   0.000000   0.000000   x 
            x  Si           2         0.250000   0.250000   0.250000   x 
            xxxxxxxxxxxxxxxxxxxxxxxxxxxxxxxxxxxxxxxxxxxxxxxxxxxxxxxxxxxx
 
 
                         No user defined ionic velocities
 
                           -------------------------------
                                   Details of Species
                           -------------------------------
 
                               Mass of species in AMU
                                    Si   28.0855000
 
                          Electric Quadrupole Moment (Barn)
                                    Si    1.0000000 No Isotope Defined
 
                          Files used for pseudopotentials:
                                    Si 3|1.8|5|6|7|30:31:32
 
                           -------------------------------
                              k-Points For BZ Sampling
                           -------------------------------
                       MP grid size for SCF calculation is  4  4  4
                            with an offset of   0.000  0.000  0.000
                       Number of kpoints used =            10
 
                           -------------------------------
                               Symmetry and Constraints
                           -------------------------------
 
                      Maximum deviation from symmetry =  0.00000         ANG
 
                      Number of symmetry operations   =          48
                      Number of ionic constraints     =           3
                      Point group of crystal =    32: Oh, m-3m, 4/m -3 2/m
                      Space group of crystal =   227: Fd-3m, F 4d 2 3 -1d
 
             Set iprint > 1 for details on symmetry rotations/translations
 
                         Centre of mass is constrained
             Set iprint > 1 for details of linear ionic constraints
 
                         Number of cell constraints= 5
                         Cell constraints are:  1 1 1 0 0 0
 
                         External pressure/stress (GPa)
                          0.00000   0.00000   0.00000
                                    0.00000   0.00000
                                              0.00000
  
+---------------- MEMORY AND SCRATCH DISK ESTIMATES PER PROCESS --------------+
|                                                     Memory          Disk    |
| Baseline code, static data and system overhead       46.0 MB         0.0 MB |
| BLAS internal memory storage                          0.0 MB         0.0 MB |
| Model and support data                              332.7 MB         0.0 MB |
| Electronic energy minimisation requirements           7.9 MB         0.0 MB |
| Force calculation requirements                       13.6 MB         0.0 MB |
|                                               ----------------------------- |
| Approx. total storage required per process          392.2 MB         0.0 MB |
|                                                                             |
| Requirements will fluctuate during execution and may exceed these estimates |
+-----------------------------------------------------------------------------+
Calculating finite basis set correction with  3 cut-off energies.
Calculating total energy with cut-off of  294.768 eV.
------------------------------------------------------------------------ <-- SCF
SCF loop      Energy           Fermi           Energy gain       Timer   <-- SCF
                               energy          per atom          (sec)   <-- SCF
------------------------------------------------------------------------ <-- SCF
Initial  -7.37138663E+000  0.00000000E+000                         8.73  <-- SCF
      1  -3.00076095E+002  8.68164604E+000   1.46352354E+002       9.05  <-- SCF
      2  -3.23806049E+002  5.61099866E+000   1.18649768E+001       9.29  <-- SCF
      3  -3.24966674E+002  5.46836360E+000   5.80312549E-001       9.51  <-- SCF
      4  -3.24928734E+002  5.70408095E+000  -1.89700535E-002      10.52  <-- SCF
      5  -3.24923904E+002  5.82933160E+000  -2.41468264E-003      11.52  <-- SCF
      6  -3.24924007E+002  5.84522033E+000   5.10174996E-005      12.54  <-- SCF
      7  -3.24924047E+002  5.84905660E+000   2.03917133E-005      13.49  <-- SCF
      8  -3.24924050E+002  5.84916528E+000   1.20123872E-006      14.40  <-- SCF
      9  -3.24924050E+002  5.84915270E+000   1.21506522E-007      15.31  <-- SCF
------------------------------------------------------------------------ <-- SCF
 
Final energy, E             =  -324.9240498620     eV
Final free energy (E-TS)    =  -324.9240499426     eV
(energies not corrected for finite basis set)
 
NB est. 0K energy (E-0.5TS)      =  -324.9240499023     eV
 
Calculating total energy with cut-off of  299.768 eV.
------------------------------------------------------------------------ <-- SCF
SCF loop      Energy           Fermi           Energy gain       Timer   <-- SCF
                               energy          per atom          (sec)   <-- SCF
------------------------------------------------------------------------ <-- SCF
Initial  -3.24924056E+002  0.00000000E+000                        16.87  <-- SCF
      1  -3.24924336E+002  5.84899040E+000   1.39989633E-004      17.14  <-- SCF
      2  -3.24924336E+002  5.84899038E+000   5.31642227E-008      18.04  <-- SCF
      3  -3.24924337E+002  5.84902541E+000   1.19347858E-007      18.95  <-- SCF
      4  -3.24924337E+002  5.84902878E+000   6.95477067E-009      19.85  <-- SCF
------------------------------------------------------------------------ <-- SCF
 
Final energy, E             =  -324.9243366437     eV
Final free energy (E-TS)    =  -324.9243367241     eV
(energies not corrected for finite basis set)
 
NB est. 0K energy (E-0.5TS)      =  -324.9243366839     eV
 
Calculating total energy with cut-off of  304.768 eV.
------------------------------------------------------------------------ <-- SCF
SCF loop      Energy           Fermi           Energy gain       Timer   <-- SCF
                               energy          per atom          (sec)   <-- SCF
------------------------------------------------------------------------ <-- SCF
Initial  -3.24924343E+002  0.00000000E+000                        21.38  <-- SCF
      1  -3.24924542E+002  5.84895455E+000   9.96480752E-005      21.64  <-- SCF
      2  -3.24924543E+002  5.84895453E+000   3.52226878E-008      22.54  <-- SCF
      3  -3.24924543E+002  5.84897407E+000   8.22172073E-008      23.44  <-- SCF
      4  -3.24924543E+002  5.84897573E+000   4.03902655E-009      24.34  <-- SCF
------------------------------------------------------------------------ <-- SCF
 
Final energy, E             =  -324.9245426319     eV
Final free energy (E-TS)    =  -324.9245427126     eV
(energies not corrected for finite basis set)
 
NB est. 0K energy (E-0.5TS)      =  -324.9245426723     eV
 
 For future reference: finite basis dEtot/dlog(Ecut) =      -0.014080eV
 Total energy corrected for finite basis set =    -324.924550 eV
 
+---------------- MEMORY AND SCRATCH DISK ESTIMATES PER PROCESS --------------+
|                                                     Memory          Disk    |
| Model and support data                              340.0 MB         0.0 MB |
| Electronic energy minimisation requirements           7.9 MB         0.0 MB |
| Geometry minimisation requirements                   10.0 MB         0.0 MB |
|                                               ----------------------------- |
| Approx. total storage required per process          358.0 MB         0.0 MB |
|                                                                             |
| Requirements will fluctuate during execution and may exceed these estimates |
+-----------------------------------------------------------------------------+
 
 
 *********** Symmetrised Stress Tensor ***********
 *                                               *
 *          Cartesian components (GPa)           *
 * --------------------------------------------- *
 *             x             y             z     *
 *                                               *
 *  x     -0.483215     -0.000000     -0.000000  *
 *  y     -0.000000     -0.483215     -0.000000  *
 *  z     -0.000000     -0.000000     -0.483215  *
 *                                               *
 *  Pressure:    0.4832                          *
 *                                               *
 *************************************************
 LBFGS: finished iteration     0 with enthalpy= -3.24924550E+002 eV
  
 +-----------+-----------------+-----------------+------------+-----+ <-- LBFGS
 | Parameter |      value      |    tolerance    |    units   | OK? | <-- LBFGS
 +-----------+-----------------+-----------------+------------+-----+ <-- LBFGS
 |  dE/ion   |   0.000000E+000 |   2.000000E-005 |         eV | No  | <-- LBFGS
 |   Smax    |   4.832152E-001 |   1.000000E-001 |        GPa | No  | <-- LBFGS
 +-----------+-----------------+-----------------+------------+-----+ <-- LBFGS
  

================================================================================
 Starting LBFGS iteration          1 ...
================================================================================
  
 +------------+-------------+-------------+-----------------+ <-- min LBFGS
 |    Step    |   lambda    |   F.delta'  |    enthalpy     | <-- min LBFGS
 +------------+-------------+-------------+-----------------+ <-- min LBFGS
 |  previous  |    0.000000 |    0.007686 |     -324.924550 | <-- min LBFGS
 +------------+-------------+-------------+-----------------+ <-- min LBFGS
  

--------------------------------------------------------------------------------
 LBFGS: starting iteration         1 with trial guess (lambda=  1.000000)
--------------------------------------------------------------------------------
 
                           -------------------------------
                                      Unit Cell
                           -------------------------------
        Real Lattice(A)              Reciprocal Lattice(1/A)
     2.7161397     2.7161397     0.0000000        1.156638831   1.156638831  -1.156638831
     2.7161397     0.0000000     2.7161397        1.156638831  -1.156638831   1.156638831
     0.0000000     2.7161397     2.7161397       -1.156638831   1.156638831   1.156638831
 
                       Lattice parameters(A)       Cell Angles
                    a =      3.841202          alpha =   60.000000
                    b =      3.841202          beta  =   60.000000
                    c =      3.841202          gamma =   60.000000
 
                Current cell volume =            40.076179 A**3
                            density =             1.401606 amu/A**3
                                    =             2.327421 g/cm^3
 
------------------------------------------------------------------------ <-- SCF
SCF loop      Energy           Fermi           Energy gain       Timer   <-- SCF
                               energy          per atom          (sec)   <-- SCF
------------------------------------------------------------------------ <-- SCF
Initial  -3.24924623E+002  0.00000000E+000                        31.06  <-- SCF
      1  -3.24924639E+002  5.83883074E+000   8.25250583E-006      31.34  <-- SCF
      2  -3.24924640E+002  5.83883073E+000   4.14238101E-008      32.25  <-- SCF
      3  -3.24924636E+002  5.83984453E+000  -1.54297067E-006      33.15  <-- SCF
      4  -3.24924636E+002  5.84022883E+000  -1.56843648E-007      34.06  <-- SCF
------------------------------------------------------------------------ <-- SCF
 
Final energy, E             =  -324.9246360853     eV
Final free energy (E-TS)    =  -324.9246361641     eV
(energies not corrected for finite basis set)
 
NB est. 0K energy (E-0.5TS)      =  -324.9246361247     eV
 
 
 *********** Symmetrised Stress Tensor ***********
 *                                               *
 *          Cartesian components (GPa)           *
 * --------------------------------------------- *
 *             x             y             z     *
 *                                               *
 *  x     -0.390778     -0.000000     -0.000000  *
 *  y     -0.000000     -0.390778     -0.000000  *
 *  z     -0.000000     -0.000000     -0.390778  *
 *                                               *
 *  Pressure:    0.3908                          *
 *                                               *
 *************************************************
  
 +------------+-------------+-------------+-----------------+ <-- min LBFGS
 |    Step    |   lambda    |   F.delta'  |    enthalpy     | <-- min LBFGS
 +------------+-------------+-------------+-----------------+ <-- min LBFGS
 |  previous  |    0.000000 |    0.007686 |     -324.924550 | <-- min LBFGS
 | trial step |    1.000000 |    0.006220 |     -324.924652 | <-- min LBFGS
 +------------+-------------+-------------+-----------------+ <-- min LBFGS
  

--------------------------------------------------------------------------------
 LBFGS: improving iteration         1 with line minimization (lambda=  5.241771)
--------------------------------------------------------------------------------
 
+---------------- MEMORY AND SCRATCH DISK ESTIMATES PER PROCESS --------------+
|                                                     Memory          Disk    |
| Model and support data                              340.1 MB         0.0 MB |
| Electronic energy minimisation requirements           7.9 MB         0.0 MB |
| Geometry minimisation requirements                   10.1 MB         0.0 MB |
|                                               ----------------------------- |
| Approx. total storage required per process          358.1 MB         0.0 MB |
|                                                                             |
| Requirements will fluctuate during execution and may exceed these estimates |
+-----------------------------------------------------------------------------+
 
 
                           -------------------------------
                                      Unit Cell
                           -------------------------------
        Real Lattice(A)              Reciprocal Lattice(1/A)
     2.7198500     2.7198500     0.0000000        1.155060996   1.155060996  -1.155060996
     2.7198500     0.0000000     2.7198500        1.155060996  -1.155060996   1.155060996
     0.0000000     2.7198500     2.7198500       -1.155060996   1.155060996   1.155060996
 
                       Lattice parameters(A)       Cell Angles
                    a =      3.846449          alpha =   60.000000
                    b =      3.846449          beta  =   60.000000
                    c =      3.846449          gamma =   60.000000
 
                Current cell volume =            40.240638 A**3
                            density =             1.395877 amu/A**3
                                    =             2.317909 g/cm^3
 
------------------------------------------------------------------------ <-- SCF
SCF loop      Energy           Fermi           Energy gain       Timer   <-- SCF
                               energy          per atom          (sec)   <-- SCF
------------------------------------------------------------------------ <-- SCF
Initial  -3.24924432E+002  0.00000000E+000                        40.72  <-- SCF
      1  -3.24924890E+002  5.79733646E+000   2.29126752E-004      41.00  <-- SCF
      2  -3.24924892E+002  5.79733625E+000   8.02564817E-007      41.93  <-- SCF
      3  -3.24924836E+002  5.80162796E+000  -2.75737500E-005      42.89  <-- SCF
      4  -3.24924831E+002  5.80325095E+000  -2.78885016E-006      43.80  <-- SCF
      5  -3.24924831E+002  5.80344190E+000   2.55434672E-008      44.71  <-- SCF
------------------------------------------------------------------------ <-- SCF
 
Final energy, E             =  -324.9248307980     eV
Final free energy (E-TS)    =  -324.9248308696     eV
(energies not corrected for finite basis set)
 
NB est. 0K energy (E-0.5TS)      =  -324.9248308338     eV
 
 
 *********** Symmetrised Stress Tensor ***********
 *                                               *
 *          Cartesian components (GPa)           *
 * --------------------------------------------- *
 *             x             y             z     *
 *                                               *
 *  x      0.004980     -0.000000     -0.000000  *
 *  y     -0.000000      0.004980     -0.000000  *
 *  z     -0.000000     -0.000000      0.004980  *
 *                                               *
 *  Pressure:   -0.0050                          *
 *                                               *
 *************************************************
  
 +------------+-------------+-------------+-----------------+ <-- min LBFGS
 |    Step    |   lambda    |   F.delta'  |    enthalpy     | <-- min LBFGS
 +------------+-------------+-------------+-----------------+ <-- min LBFGS
 |  previous  |    0.000000 |    0.007686 |     -324.924550 | <-- min LBFGS
 | trial step |    1.000000 |    0.006220 |     -324.924652 | <-- min LBFGS
 |  line step |    5.241771 |   -0.000079 |     -324.924824 | <-- min LBFGS
 +------------+-------------+-------------+-----------------+ <-- min LBFGS
  
 LBFGS: finished iteration     1 with enthalpy= -3.24924824E+002 eV
  
 +-----------+-----------------+-----------------+------------+-----+ <-- LBFGS
 | Parameter |      value      |    tolerance    |    units   | OK? | <-- LBFGS
 +-----------+-----------------+-----------------+------------+-----+ <-- LBFGS
 |  dE/ion   |   1.370836E-004 |   2.000000E-005 |         eV | No  | <-- LBFGS
 |   Smax    |   4.980449E-003 |   1.000000E-001 |        GPa | Yes | <-- LBFGS
 +-----------+-----------------+-----------------+------------+-----+ <-- LBFGS
  

================================================================================
 Starting LBFGS iteration          2 ...
================================================================================
  
 +------------+-------------+-------------+-----------------+ <-- min LBFGS
 |    Step    |   lambda    |   F.delta'  |    enthalpy     | <-- min LBFGS
 +------------+-------------+-------------+-----------------+ <-- min LBFGS
 |  previous  |    0.000000 |    0.000079 |     -324.924824 | <-- min LBFGS
 +------------+-------------+-------------+-----------------+ <-- min LBFGS
  

--------------------------------------------------------------------------------
 LBFGS: starting iteration         2 with trial guess (lambda=  1.000000)
--------------------------------------------------------------------------------
 
                           -------------------------------
                                      Unit Cell
                           -------------------------------
        Real Lattice(A)              Reciprocal Lattice(1/A)
     2.7198031     2.7198031    -0.0000000        1.155080927   1.155080927  -1.155080927
     2.7198031     0.0000000     2.7198031        1.155080927  -1.155080927   1.155080927
     0.0000000     2.7198031     2.7198031       -1.155080927   1.155080927   1.155080927
 
                       Lattice parameters(A)       Cell Angles
                    a =      3.846382          alpha =   60.000000
                    b =      3.846382          beta  =   60.000000
                    c =      3.846382          gamma =   60.000000
 
                Current cell volume =            40.238555 A**3
                            density =             1.395950 amu/A**3
                                    =             2.318029 g/cm^3
 
------------------------------------------------------------------------ <-- SCF
SCF loop      Energy           Fermi           Energy gain       Timer   <-- SCF
                               energy          per atom          (sec)   <-- SCF
------------------------------------------------------------------------ <-- SCF
Initial  -3.24924838E+002  0.00000000E+000                        51.37  <-- SCF
      1  -3.24924832E+002  5.80427172E+000  -3.22092626E-006      51.55  <-- SCF
      2  -3.24924832E+002  5.80427172E+000   4.71079184E-009      52.45  <-- SCF
      3  -3.24924832E+002  5.80415763E+000  -1.91248037E-008      53.36  <-- SCF
      4  -3.24924832E+002  5.80410979E+000  -2.32813378E-009      54.27  <-- SCF
------------------------------------------------------------------------ <-- SCF
 
Final energy, E             =  -324.9248315584     eV
Final free energy (E-TS)    =  -324.9248316304     eV
(energies not corrected for finite basis set)
 
NB est. 0K energy (E-0.5TS)      =  -324.9248315944     eV
 
 
 *********** Symmetrised Stress Tensor ***********
 *                                               *
 *          Cartesian components (GPa)           *
 * --------------------------------------------- *
 *             x             y             z     *
 *                                               *
 *  x      0.007975     -0.000000     -0.000000  *
 *  y     -0.000000      0.007975      0.000000  *
 *  z     -0.000000      0.000000      0.007975  *
 *                                               *
 *  Pressure:   -0.0080                          *
 *                                               *
 *************************************************
  
 +------------+-------------+-------------+-----------------+ <-- min LBFGS
 |    Step    |   lambda    |   F.delta'  |    enthalpy     | <-- min LBFGS
 +------------+-------------+-------------+-----------------+ <-- min LBFGS
 |  previous  |    0.000000 |    0.000079 |     -324.924824 | <-- min LBFGS
 | trial step |    1.000000 |    0.000127 |     -324.924824 | <-- min LBFGS
 +------------+-------------+-------------+-----------------+ <-- min LBFGS
  
 LBFGS: finished iteration     2 with enthalpy= -3.24924824E+002 eV
  
 +-----------+-----------------+-----------------+------------+-----+ <-- LBFGS
 | Parameter |      value      |    tolerance    |    units   | OK? | <-- LBFGS
 +-----------+-----------------+-----------------+------------+-----+ <-- LBFGS
 |  dE/ion   |   1.374358E-007 |   2.000000E-005 |         eV | Yes | <-- LBFGS
 |   Smax    |   7.975342E-003 |   1.000000E-001 |        GPa | Yes | <-- LBFGS
 +-----------+-----------------+-----------------+------------+-----+ <-- LBFGS
  
 LBFGS: Geometry optimization completed successfully.

================================================================================
 LBFGS: Final Configuration:
================================================================================
 
                           -------------------------------
                                      Unit Cell
                           -------------------------------
        Real Lattice(A)              Reciprocal Lattice(1/A)
     2.7198031     2.7198031    -0.0000000        1.155080927   1.155080927  -1.155080927
     2.7198031     0.0000000     2.7198031        1.155080927  -1.155080927   1.155080927
     0.0000000     2.7198031     2.7198031       -1.155080927   1.155080927   1.155080927
 
                       Lattice parameters(A)       Cell Angles
                    a =      3.846382          alpha =   60.000000
                    b =      3.846382          beta  =   60.000000
                    c =      3.846382          gamma =   60.000000
 
                Current cell volume =            40.238555 A**3
                            density =             1.395950 amu/A**3
                                    =             2.318029 g/cm^3
 
 LBFGS: Final Enthalpy     = -3.24924824E+002 eV
 LBFGS: Final bulk modulus unchanged from initial value
 
 ******************************** Symmetrised Forces ********************************
 *                                                                                  *
 *                           Cartesian components (eV/A)                            *
 * -------------------------------------------------------------------------------- *
 *                         x                    y                    z              *
 *                                                                                  *
 * Si              1      0.00000              0.00000              0.00000         *
 * Si              2      0.00000              0.00000              0.00000         *
 *                                                                                  *
 ************************************************************************************
 
 *********** Symmetrised Stress Tensor ***********
 *                                               *
 *          Cartesian components (GPa)           *
 * --------------------------------------------- *
 *             x             y             z     *
 *                                               *
 *  x      0.007975     -0.000000     -0.000000  *
 *  y     -0.000000      0.007975      0.000000  *
 *  z     -0.000000      0.000000      0.007975  *
 *                                               *
 *  Pressure:   -0.0080                          *
 *                                               *
 *************************************************
 
 Pseudo atomic calculation performed for Si 3s2 3p2
 
 Converged in 17 iterations to a total energy of -156.5453 eV
Charge spilling parameter for spin component 1 = 0.94%
 
            Orbital Populations       
     Ion    Atom   Orbital             Charge
  -------------------------------------------
     Si     1      S                    1.360
     Si     1      Px                   0.909
     Si     1      Py                   0.881
     Si     1      Pz                   0.849
     Si     2      S                    1.360
     Si     2      Px                   0.909
     Si     2      Py                   0.881
     Si     2      Pz                   0.849
  -------------------------------------------
                           Total:       8.000
  -------------------------------------------
 
     Atomic Populations (Mulliken)
     -----------------------------
Species          Ion     s      p      d      f     Total  Charge (e)
=====================================================================
  Si              1     1.36   2.64   0.00   0.00   4.00     0.00
  Si              2     1.36   2.64   0.00   0.00   4.00     0.00
=====================================================================
 
                 Bond                   Population      Length (A)
======================================================================
              Si 1 -- Si 2                   2.98        2.35542
======================================================================
 

Writing analysis data to Si.castep_bin

Writing model to Si.check
 
 A BibTeX formatted list of references used in this run has been written to 
 Si.bib
 
Initialisation time =      6.78 s
Calculation time    =     54.33 s
Finalisation time   =      0.42 s
Total time          =     61.53 s
Peak Memory Use     = 677992 kB
