 +-------------------------------------------------+
 |                                                 |
 |      CCC   AA    SSS  TTTTT  EEEEE  PPPP        |
 |     C     A  A  S       T    E      P   P       |
 |     C     AAAA   SS     T    EEE    PPPP        |
 |     C     A  A     S    T    E      P           |
 |      CCC  A  A  SSS     T    EEEEE  P           |
 |                                                 |
 +-------------------------------------------------+
 |                                                 |
 | Welcome to Academic Release CASTEP version 20.1 |          
 | Ab Initio Total Energy Program                  |
 |                                                 |
 | Authors:                                        |
 | M. Segall, M. Probert, C. Pickard, P. Hasnip,   |
 | S. Clark, K. Refson, J. R. Yates, M. Payne      |
 |                                                 |
 | Contributors:                                   |
 | P. Lindan, P. Haynes, J. White, V. Milman,      |
 | N. Govind, M. Gibson, P. Tulip, V. Cocula,      |
 | B. Montanari, D. Quigley, M. Glover,            |
 | L. Bernasconi, A. Perlov, M. Plummer,           |
 | E. McNellis, J. Meyer, J. Gale, D. Jochym       |
 | J. Aarons, B. Walker, R. Gillen, D. Jones       |
 | T. Green, I. J. Bush, C. J. Armstrong,          |
 | E. J. Higgins, E. L. Brown, M. S. McFly,        |
 | J. Wilkins, B-C. Shih, P. J. P. Byrne,          |
 | R. J. Maurer, J. C. Womack, A. Bartok-Partay    |
 |                                                 |
 | Copyright (c) 2000 - 2019                       |
 |                                                 |
 |     Distributed under the terms of an           |
 |     Agreement between the United Kingdom        |
 |     Car-Parrinello (UKCP) Consortium,           |
 |     Daresbury Laboratory and Accelrys, Inc.     |
 |                                                 |
 | Please cite                                     |
 |                                                 |
 |     "First principles methods using CASTEP"     |
 |                                                 |
 |         Zeitschrift fuer Kristallographie       |
 |           220(5-6) pp. 567-570 (2005)           |
 |                                                 |
 | S. J. Clark, M. D. Segall, C. J. Pickard,       |
 | P. J. Hasnip, M. J. Probert, K. Refson,         |
 | M. C. Payne                                     |
 |                                                 |
 |       in all publications arising from          |
 |              your use of CASTEP                 |
 |                                                 |
 +-------------------------------------------------+
 |                                                 |
 |              http://www.castep.org              |
 |                                                 |
 +-------------------------------------------------+
 
 
 
 Compiled for linux_x86_64_ifort17 on Mon, 15 Jul 2019 14:09:47 +0100
 from code version 5dacc5c3c63b+  Mon, 10 Jun 2019 22:27:09 +0100
 Compiler: Intel Fortran 17.0.1.132; Optimisation: fast
 MATHLIBS: Intel MKL(2017.0.1) (LAPACK version 3.6.0)
 FFT Lib : mkl
 Fundamental constants values: CODATA 2014
 
 Run started: Mon, 15 Jul 2019 15:33:16 +0100
 
 Atomic calculation performed for Si: 1s2 2s2 2p6 3s2 3p2
 
 Converged in 50 iterations to an ae energy of -7886.857 eV
 
   ============================================================                
   | Pseudopotential Report - Date of generation 15-07-2019   |                
   ------------------------------------------------------------                
   | Element: Si Ionic charge:  4.00 Level of theory: PBE     |                
   | Atomic Solver: Koelling-Harmon                           |                
   |                                                          |                
   |               Reference Electronic Structure             |                
   |         Orbital         Occupation         Energy        |                
   |            3s              2.000           -0.397        |                
   |            3p              2.000           -0.150        |                
   |                                                          |                
   |                 Pseudopotential Definition               |                
   |        Beta     l      e      Rc     scheme   norm       |                
   |          1      0   -0.397   1.797     qc      0         |                
   |          2      0    0.250   1.797     qc      0         |                
   |          3      1   -0.150   1.797     qc      0         |                
   |          4      1    0.250   1.797     qc      0         |                
   |          5      2    0.000   1.797     qc      0         |                
   |          6      2    0.250   1.797     qc      0         |                
   |         loc     3    0.000   1.797     pn      0         |                
   |                                                          |                
   | Augmentation charge Rinner = 1.255                       |                
   | Partial core correction Rc = 1.255                       |                
   ------------------------------------------------------------                
   | "3|1.8|5|6|7|30:31:32"                                   |                
   ------------------------------------------------------------                
   |      Author: Chris J. Pickard, Cambridge University      |                
   ============================================================                
 
 Pseudo atomic calculation performed for Si 3s2 3p2
 
 Converged in 11 iterations to a total energy of -165.0655 eV
 Calculation not parallelised.

 ************************************ Title ************************************
 

 ***************************** General Parameters ******************************
  
 output verbosity                               : normal  (1)
 write checkpoint data to                       : Si.check
 type of calculation                            : geometry optimization
 stress calculation                             : off
 density difference calculation                 : off
 electron localisation func (ELF) calculation   : off
 Hirshfeld analysis                             : off
 molecular orbital projected DOS                : off
 deltaSCF calculation                           : off
 unlimited duration calculation
 timing information                             : on
 memory usage estimate                          : on
 write extra output files                       : on
 write final potential to formatted file        : off
 write final density to formatted file          : off
 write BibTeX reference list                    : on
 write OTFG pseudopotential files               : on
 write electrostatic potential file             : on
 write bands file                               : on
 checkpoint writing                             : both castep_bin and check files
  
 output         length unit                     : A
 output           mass unit                     : amu
 output           time unit                     : ps
 output         charge unit                     : e
 output           spin unit                     : hbar/2
 output         energy unit                     : eV
 output          force unit                     : eV/A
 output       velocity unit                     : A/ps
 output       pressure unit                     : GPa
 output     inv_length unit                     : 1/A
 output      frequency unit                     : cm-1
 output force constant unit                     : eV/A**2
 output         volume unit                     : A**3
 output   IR intensity unit                     : (D/A)**2/amu
 output         dipole unit                     : D
 output         efield unit                     : eV/A/e
 output        entropy unit                     : J/mol/K
  
 wavefunctions paging                           : none
 random number generator seed                   : randomised (153316458)
 data distribution                              : optimal for this architecture
 optimization strategy                          : maximize speed(+++)

 *********************** Exchange-Correlation Parameters ***********************
  
 using functional                               : Perdew Burke Ernzerhof
 relativistic treatment                         : Koelling-Harmon
 DFT+D: Semi-empirical dispersion correction    : off

 ************************* Pseudopotential Parameters **************************
  
 pseudopotential representation                 : reciprocal space
 <beta|phi> representation                      : reciprocal space
 spin-orbit coupling                            : off

 **************************** Basis Set Parameters *****************************
  
 basis set accuracy                             : EXTREME
 plane wave basis set cut-off                   :   304.7675   eV
 size of standard grid                          :     1.7500
 size of   fine   grid                          :     4.0000
 size of   fine   gmax                          :    35.7753   1/A
 finite basis set correction                    : automatic
 number of sample energies                      :          3
           sample  spacing                      :     5.0000   eV

 **************************** Electronic Parameters ****************************
  
 number of  electrons                           :  8.000    
 net charge of system                           :  0.000    
 treating system as non-spin-polarized
 number of bands                                :          8

 ********************* Electronic Minimization Parameters **********************
  
 Method: Treating system as metallic with density mixing treatment of electrons,
         and number of  SD  steps               :          1
         and number of  CG  steps               :          4
  
 total energy / atom convergence tol.           : 0.1000E-04   eV
 eigen-energy convergence tolerance             : 0.1000E-05   eV
 max force / atom convergence tol.              : ignored
 convergence tolerance window                   :          3   cycles
 max. number of SCF cycles                      :         30
 number of fixed-spin iterations                :         10
 smearing scheme                                : Gaussian
 smearing width                                 : 0.2000       eV
 Fermi energy convergence tolerance             : 0.2721E-13   eV
 periodic dipole correction                     : NONE

 ************************** Density Mixing Parameters **************************
  
 density-mixing scheme                          : Broyden
 max. length of mixing history                  :         20
 charge density mixing amplitude                : 0.8000    

 *********************** Population Analysis Parameters ************************
  
 Population analysis with cutoff                :  3.000       A
 Population analysis output                     : summary and pdos components

 ********************** Geometry Optimization Parameters ***********************
  
 optimization method                            : LBFGS
 max. no. of LBFGS updates                      : unbounded
 variable cell method                           : fixed basis quality
 max. number of steps                           :         30
 estimated bulk modulus                         :  500.0       GPa
 estimated <frequency>                          :  1668.       cm-1
 geom line minimiser                            : on
 with line minimiser tolerance                  :     0.4000
 total energy convergence tolerance             : 0.2000E-04   eV/atom
        max ionic |force| tolerance             : 0.5000E-01   eV/A
 max ionic |displacement| tolerance             : 0.1000E-02   A
   max |stress component| tolerance             : 0.1000       GPa
 convergence tolerance window                   :          2   steps
 backup results every                           :          5   steps
 write geom trajectory file                     : on

 *******************************************************************************
  
 
                           -------------------------------
                                      Unit Cell
                           -------------------------------
        Real Lattice(A)                      Reciprocal Lattice(1/A)
     2.7152650     2.7152650     0.0000000        1.157011435   1.157011435  -1.157011435
     2.7152650     0.0000000     2.7152650        1.157011435  -1.157011435   1.157011435
     0.0000000     2.7152650     2.7152650       -1.157011435   1.157011435   1.157011435
 
                       Lattice parameters(A)       Cell Angles
                    a =      3.839965          alpha =   60.000000
                    b =      3.839965          beta  =   60.000000
                    c =      3.839965          gamma =   60.000000
 
                       Current cell volume =            40.037473       A**3
                                   density =             1.402961   AMU/A**3
                                           =             2.329671     g/cm^3
 
                           -------------------------------
                                     Cell Contents
                           -------------------------------
                         Total number of ions in cell =    2
                      Total number of species in cell =    1
                        Max number of any one species =    2
 
            xxxxxxxxxxxxxxxxxxxxxxxxxxxxxxxxxxxxxxxxxxxxxxxxxxxxxxxxxxxx
            x  Element    Atom        Fractional coordinates of atoms  x
            x            Number           u          v          w      x
            x----------------------------------------------------------x
            x  Si           1         0.000000   0.000000   0.000000   x 
            x  Si           2         0.250000   0.250000   0.250000   x 
            xxxxxxxxxxxxxxxxxxxxxxxxxxxxxxxxxxxxxxxxxxxxxxxxxxxxxxxxxxxx
 
 
                         No user defined ionic velocities
 
                           -------------------------------
                                   Details of Species
                           -------------------------------
 
                               Mass of species in AMU
                                    Si   28.0855000
 
                          Electric Quadrupole Moment (Barn)
                                    Si    1.0000000 No Isotope Defined
 
                          Files used for pseudopotentials:
                                    Si 3|1.8|5|6|7|30:31:32
 
                           -------------------------------
                              k-Points For BZ Sampling
                           -------------------------------
                       MP grid size for SCF calculation is  4  4  4
                            with an offset of   0.000  0.000  0.000
                       Number of kpoints used =            10
 
                           -------------------------------
                               Symmetry and Constraints
                           -------------------------------
 
                      Maximum deviation from symmetry =  0.00000         ANG
 
                      Number of symmetry operations   =          48
                      Number of ionic constraints     =           3
                      Point group of crystal =    32: Oh, m-3m, 4/m -3 2/m
                      Space group of crystal =   227: Fd-3m, F 4d 2 3 -1d
 
             Set iprint > 1 for details on symmetry rotations/translations
 
                         Centre of mass is constrained
             Set iprint > 1 for details of linear ionic constraints
 
                         Number of cell constraints= 5
                         Cell constraints are:  1 1 1 0 0 0
 
                         External pressure/stress (GPa)
                          0.00000   0.00000   0.00000
                                    0.00000   0.00000
                                              0.00000
  
+---------------- MEMORY AND SCRATCH DISK ESTIMATES PER PROCESS --------------+
|                                                     Memory          Disk    |
| Baseline code, static data and system overhead       46.0 MB         0.0 MB |
| BLAS internal memory storage                          0.0 MB         0.0 MB |
| Model and support data                              332.7 MB         0.0 MB |
| Electronic energy minimisation requirements           7.9 MB         0.0 MB |
| Force calculation requirements                       13.6 MB         0.0 MB |
|                                               ----------------------------- |
| Approx. total storage required per process          392.2 MB         0.0 MB |
|                                                                             |
| Requirements will fluctuate during execution and may exceed these estimates |
+-----------------------------------------------------------------------------+
Calculating finite basis set correction with  3 cut-off energies.
Calculating total energy with cut-off of  294.768 eV.
------------------------------------------------------------------------ <-- SCF
SCF loop      Energy           Fermi           Energy gain       Timer   <-- SCF
                               energy          per atom          (sec)   <-- SCF
------------------------------------------------------------------------ <-- SCF
Initial  -1.66577407E+001  0.00000000E+000                         8.41  <-- SCF
      1  -3.18681340E+002  7.00344397E+000   1.51011800E+002       8.77  <-- SCF
      2  -3.40217311E+002  4.48714732E+000   1.07679852E+001       9.02  <-- SCF
      3  -3.41115533E+002  4.32471722E+000   4.49111141E-001       9.26  <-- SCF
      4  -3.40969734E+002  4.55306555E+000  -7.28996741E-002      10.29  <-- SCF
      5  -3.40961269E+002  4.66111092E+000  -4.23224176E-003      11.31  <-- SCF
      6  -3.40962761E+002  4.68296035E+000   7.45758161E-004      12.32  <-- SCF
      7  -3.40963091E+002  4.69341137E+000   1.65064513E-004      13.33  <-- SCF
      8  -3.40963107E+002  4.69477640E+000   8.22418087E-006      14.26  <-- SCF
      9  -3.40963109E+002  4.69531418E+000   7.88235298E-007      15.16  <-- SCF
------------------------------------------------------------------------ <-- SCF
 
Final energy, E             =  -340.9631063306     eV
Final free energy (E-TS)    =  -340.9631088907     eV
(energies not corrected for finite basis set)
 
NB est. 0K energy (E-0.5TS)      =  -340.9631076106     eV
 
Calculating total energy with cut-off of  299.768 eV.
------------------------------------------------------------------------ <-- SCF
SCF loop      Energy           Fermi           Energy gain       Timer   <-- SCF
                               energy          per atom          (sec)   <-- SCF
------------------------------------------------------------------------ <-- SCF
Initial  -3.40963110E+002  0.00000000E+000                        16.68  <-- SCF
      1  -3.40963331E+002  4.69521577E+000   1.10959751E-004      16.97  <-- SCF
      2  -3.40963332E+002  4.69521573E+000   8.80267022E-008      17.87  <-- SCF
      3  -3.40963332E+002  4.69523858E+000   9.26191405E-008      18.78  <-- SCF
      4  -3.40963332E+002  4.69523810E+000   7.66646243E-009      19.68  <-- SCF
------------------------------------------------------------------------ <-- SCF
 
Final energy, E             =  -340.9633292901     eV
Final free energy (E-TS)    =  -340.9633318473     eV
(energies not corrected for finite basis set)
 
NB est. 0K energy (E-0.5TS)      =  -340.9633305687     eV
 
Calculating total energy with cut-off of  304.768 eV.
------------------------------------------------------------------------ <-- SCF
SCF loop      Energy           Fermi           Energy gain       Timer   <-- SCF
                               energy          per atom          (sec)   <-- SCF
------------------------------------------------------------------------ <-- SCF
Initial  -3.40963333E+002  0.00000000E+000                        21.18  <-- SCF
      1  -3.40963489E+002  4.69519597E+000   7.82031666E-005      21.47  <-- SCF
      2  -3.40963489E+002  4.69519595E+000   5.59284057E-008      22.37  <-- SCF
      3  -3.40963489E+002  4.69520742E+000   6.39228597E-008      23.28  <-- SCF
      4  -3.40963489E+002  4.69520772E+000   4.82542335E-009      24.18  <-- SCF
------------------------------------------------------------------------ <-- SCF
 
Final energy, E             =  -340.9634865975     eV
Final free energy (E-TS)    =  -340.9634891582     eV
(energies not corrected for finite basis set)
 
NB est. 0K energy (E-0.5TS)      =  -340.9634878779     eV
 
 For future reference: finite basis dEtot/dlog(Ecut) =      -0.010867eV
 Total energy corrected for finite basis set =    -340.963494 eV
 
+---------------- MEMORY AND SCRATCH DISK ESTIMATES PER PROCESS --------------+
|                                                     Memory          Disk    |
| Model and support data                              340.0 MB         0.0 MB |
| Electronic energy minimisation requirements           7.9 MB         0.0 MB |
| Geometry minimisation requirements                   10.0 MB         0.0 MB |
|                                               ----------------------------- |
| Approx. total storage required per process          358.0 MB         0.0 MB |
|                                                                             |
| Requirements will fluctuate during execution and may exceed these estimates |
+-----------------------------------------------------------------------------+
 
 
 *********** Symmetrised Stress Tensor ***********
 *                                               *
 *          Cartesian components (GPa)           *
 * --------------------------------------------- *
 *             x             y             z     *
 *                                               *
 *  x     -1.945521      0.000000     -0.000000  *
 *  y      0.000000     -1.945521     -0.000000  *
 *  z     -0.000000     -0.000000     -1.945521  *
 *                                               *
 *  Pressure:    1.9455                          *
 *                                               *
 *************************************************
 LBFGS: finished iteration     0 with enthalpy= -3.40963494E+002 eV
  
 +-----------+-----------------+-----------------+------------+-----+ <-- LBFGS
 | Parameter |      value      |    tolerance    |    units   | OK? | <-- LBFGS
 +-----------+-----------------+-----------------+------------+-----+ <-- LBFGS
 |  dE/ion   |   0.000000E+000 |   2.000000E-005 |         eV | No  | <-- LBFGS
 |   Smax    |   1.945521E+000 |   1.000000E-001 |        GPa | No  | <-- LBFGS
 +-----------+-----------------+-----------------+------------+-----+ <-- LBFGS
  

================================================================================
 Starting LBFGS iteration          1 ...
================================================================================
  
 +------------+-------------+-------------+-----------------+ <-- min LBFGS
 |    Step    |   lambda    |   F.delta'  |    enthalpy     | <-- min LBFGS
 +------------+-------------+-------------+-----------------+ <-- min LBFGS
 |  previous  |    0.000000 |    0.030946 |     -340.963494 | <-- min LBFGS
 +------------+-------------+-------------+-----------------+ <-- min LBFGS
  

--------------------------------------------------------------------------------
 LBFGS: starting iteration         1 with trial guess (lambda=  1.000000)
--------------------------------------------------------------------------------
 
+---------------- MEMORY AND SCRATCH DISK ESTIMATES PER PROCESS --------------+
|                                                     Memory          Disk    |
| Model and support data                              340.1 MB         0.0 MB |
| Electronic energy minimisation requirements           7.9 MB         0.0 MB |
| Geometry minimisation requirements                   10.1 MB         0.0 MB |
|                                               ----------------------------- |
| Approx. total storage required per process          358.1 MB         0.0 MB |
|                                                                             |
| Requirements will fluctuate during execution and may exceed these estimates |
+-----------------------------------------------------------------------------+
 
 
                           -------------------------------
                                      Unit Cell
                           -------------------------------
        Real Lattice(A)              Reciprocal Lattice(1/A)
     2.7187867     2.7187867     0.0000000        1.155512719   1.155512719  -1.155512719
     2.7187867     0.0000000     2.7187867        1.155512719  -1.155512719   1.155512719
    -0.0000000     2.7187867     2.7187867       -1.155512719   1.155512719   1.155512719
 
                       Lattice parameters(A)       Cell Angles
                    a =      3.844945          alpha =   60.000000
                    b =      3.844945          beta  =   60.000000
                    c =      3.844945          gamma =   60.000000
 
                Current cell volume =            40.193463 A**3
                            density =             1.397516 amu/A**3
                                    =             2.320630 g/cm^3
 
------------------------------------------------------------------------ <-- SCF
SCF loop      Energy           Fermi           Energy gain       Timer   <-- SCF
                               energy          per atom          (sec)   <-- SCF
------------------------------------------------------------------------ <-- SCF
Initial  -3.40964849E+002  0.00000000E+000                        31.75  <-- SCF
      1  -3.40965268E+002  4.65906040E+000   2.09425463E-004      32.05  <-- SCF
      2  -3.40965270E+002  4.65906019E+000   7.02646624E-007      32.99  <-- SCF
      3  -3.40965201E+002  4.66339925E+000  -3.40221693E-005      33.95  <-- SCF
      4  -3.40965196E+002  4.66497337E+000  -2.65479650E-006      34.85  <-- SCF
      5  -3.40965196E+002  4.66521601E+000   1.34907460E-007      35.75  <-- SCF
------------------------------------------------------------------------ <-- SCF
 
Final energy, E             =  -340.9651940727     eV
Final free energy (E-TS)    =  -340.9651964311     eV
(energies not corrected for finite basis set)
 
NB est. 0K energy (E-0.5TS)      =  -340.9651952519     eV
 
 
 *********** Symmetrised Stress Tensor ***********
 *                                               *
 *          Cartesian components (GPa)           *
 * --------------------------------------------- *
 *             x             y             z     *
 *                                               *
 *  x     -1.577515      0.000000     -0.000000  *
 *  y      0.000000     -1.577515      0.000000  *
 *  z     -0.000000      0.000000     -1.577515  *
 *                                               *
 *  Pressure:    1.5775                          *
 *                                               *
 *************************************************
  
 +------------+-------------+-------------+-----------------+ <-- min LBFGS
 |    Step    |   lambda    |   F.delta'  |    enthalpy     | <-- min LBFGS
 +------------+-------------+-------------+-----------------+ <-- min LBFGS
 |  previous  |    0.000000 |    0.030946 |     -340.963494 | <-- min LBFGS
 | trial step |    1.000000 |    0.025157 |     -340.965199 | <-- min LBFGS
 +------------+-------------+-------------+-----------------+ <-- min LBFGS
  

--------------------------------------------------------------------------------
 LBFGS: improving iteration         1 with line minimization (lambda=  5.346140)
--------------------------------------------------------------------------------
 
+---------------- MEMORY AND SCRATCH DISK ESTIMATES PER PROCESS --------------+
|                                                     Memory          Disk    |
| Model and support data                              340.1 MB         0.0 MB |
| Electronic energy minimisation requirements           8.0 MB         0.0 MB |
| Geometry minimisation requirements                   10.1 MB         0.0 MB |
|                                               ----------------------------- |
| Approx. total storage required per process          358.1 MB         0.0 MB |
|                                                                             |
| Requirements will fluctuate during execution and may exceed these estimates |
+-----------------------------------------------------------------------------+
 
 
                           -------------------------------
                                      Unit Cell
                           -------------------------------
        Real Lattice(A)              Reciprocal Lattice(1/A)
     2.7340927     2.7340927     0.0000000        1.149043944   1.149043944  -1.149043944
     2.7340927     0.0000000     2.7340927        1.149043944  -1.149043944   1.149043944
    -0.0000000     2.7340927     2.7340927       -1.149043944   1.149043944   1.149043944
 
                       Lattice parameters(A)       Cell Angles
                    a =      3.866591          alpha =   60.000000
                    b =      3.866591          beta  =   60.000000
                    c =      3.866591          gamma =   60.000000
 
                Current cell volume =            40.876123 A**3
                            density =             1.374176 amu/A**3
                                    =             2.281873 g/cm^3
 
------------------------------------------------------------------------ <-- SCF
SCF loop      Energy           Fermi           Energy gain       Timer   <-- SCF
                               energy          per atom          (sec)   <-- SCF
------------------------------------------------------------------------ <-- SCF
Initial  -3.40962364E+002  0.00000000E+000                        43.34  <-- SCF
      1  -3.40969856E+002  4.50998017E+000   3.74556367E-003      43.65  <-- SCF
      2  -3.40969891E+002  4.50997389E+000   1.74967545E-005      44.69  <-- SCF
      3  -3.40968615E+002  4.52862869E+000  -6.38029938E-004      45.70  <-- SCF
      4  -3.40968512E+002  4.53552432E+000  -5.14748110E-005      46.71  <-- SCF
      5  -3.40968513E+002  4.53695614E+000   5.79851821E-007      47.62  <-- SCF
      6  -3.40968514E+002  4.53786710E+000   4.97025251E-007      48.52  <-- SCF
------------------------------------------------------------------------ <-- SCF
 
Final energy, E             =  -340.9685120824     eV
Final free energy (E-TS)    =  -340.9685137510     eV
(energies not corrected for finite basis set)
 
NB est. 0K energy (E-0.5TS)      =  -340.9685129167     eV
 
 
 *********** Symmetrised Stress Tensor ***********
 *                                               *
 *          Cartesian components (GPa)           *
 * --------------------------------------------- *
 *             x             y             z     *
 *                                               *
 *  x     -0.020800     -0.000000      0.000000  *
 *  y     -0.000000     -0.020800     -0.000000  *
 *  z      0.000000     -0.000000     -0.020800  *
 *                                               *
 *  Pressure:    0.0208                          *
 *                                               *
 *************************************************
  
 +------------+-------------+-------------+-----------------+ <-- min LBFGS
 |    Step    |   lambda    |   F.delta'  |    enthalpy     | <-- min LBFGS
 +------------+-------------+-------------+-----------------+ <-- min LBFGS
 |  previous  |    0.000000 |    0.030946 |     -340.963494 | <-- min LBFGS
 | trial step |    1.000000 |    0.025157 |     -340.965199 | <-- min LBFGS
 |  line step |    5.346140 |    0.000335 |     -340.968507 | <-- min LBFGS
 +------------+-------------+-------------+-----------------+ <-- min LBFGS
  
 LBFGS: finished iteration     1 with enthalpy= -3.40968507E+002 eV
  
 +-----------+-----------------+-----------------+------------+-----+ <-- LBFGS
 | Parameter |      value      |    tolerance    |    units   | OK? | <-- LBFGS
 +-----------+-----------------+-----------------+------------+-----+ <-- LBFGS
 |  dE/ion   |   2.506153E-003 |   2.000000E-005 |         eV | No  | <-- LBFGS
 |   Smax    |   2.079971E-002 |   1.000000E-001 |        GPa | Yes | <-- LBFGS
 +-----------+-----------------+-----------------+------------+-----+ <-- LBFGS
  

================================================================================
 Starting LBFGS iteration          2 ...
================================================================================
  
 +------------+-------------+-------------+-----------------+ <-- min LBFGS
 |    Step    |   lambda    |   F.delta'  |    enthalpy     | <-- min LBFGS
 +------------+-------------+-------------+-----------------+ <-- min LBFGS
 |  previous  |    0.000000 |    0.000335 |     -340.968507 | <-- min LBFGS
 +------------+-------------+-------------+-----------------+ <-- min LBFGS
  

--------------------------------------------------------------------------------
 LBFGS: starting iteration         2 with trial guess (lambda=  1.000000)
--------------------------------------------------------------------------------
 
                           -------------------------------
                                      Unit Cell
                           -------------------------------
        Real Lattice(A)              Reciprocal Lattice(1/A)
     2.7342990     2.7342990     0.0000000        1.148957239   1.148957239  -1.148957239
     2.7342990     0.0000000     2.7342990        1.148957239  -1.148957239   1.148957239
    -0.0000000     2.7342990     2.7342990       -1.148957239   1.148957239   1.148957239
 
                       Lattice parameters(A)       Cell Angles
                    a =      3.866883          alpha =   60.000000
                    b =      3.866883          beta  =   60.000000
                    c =      3.866883          gamma =   60.000000
 
                Current cell volume =            40.885378 A**3
                            density =             1.373865 amu/A**3
                                    =             2.281357 g/cm^3
 
------------------------------------------------------------------------ <-- SCF
SCF loop      Energy           Fermi           Energy gain       Timer   <-- SCF
                               energy          per atom          (sec)   <-- SCF
------------------------------------------------------------------------ <-- SCF
Initial  -3.40968513E+002  0.00000000E+000                        56.14  <-- SCF
      1  -3.40968513E+002  4.53588813E+000   4.76676624E-010      56.34  <-- SCF
      2  -3.40968513E+002  4.53588812E+000   2.03299934E-008      57.24  <-- SCF
      3  -3.40968513E+002  4.53613437E+000  -1.09125353E-007      58.15  <-- SCF
      4  -3.40968513E+002  4.53623443E+000  -8.76644637E-009      59.06  <-- SCF
------------------------------------------------------------------------ <-- SCF
 
Final energy, E             =  -340.9685111743     eV
Final free energy (E-TS)    =  -340.9685128327     eV
(energies not corrected for finite basis set)
 
NB est. 0K energy (E-0.5TS)      =  -340.9685120035     eV
 
 
 *********** Symmetrised Stress Tensor ***********
 *                                               *
 *          Cartesian components (GPa)           *
 * --------------------------------------------- *
 *             x             y             z     *
 *                                               *
 *  x     -0.000853      0.000000     -0.000000  *
 *  y      0.000000     -0.000853      0.000000  *
 *  z     -0.000000      0.000000     -0.000853  *
 *                                               *
 *  Pressure:    0.0009                          *
 *                                               *
 *************************************************
  
 +------------+-------------+-------------+-----------------+ <-- min LBFGS
 |    Step    |   lambda    |   F.delta'  |    enthalpy     | <-- min LBFGS
 +------------+-------------+-------------+-----------------+ <-- min LBFGS
 |  previous  |    0.000000 |    0.000335 |     -340.968507 | <-- min LBFGS
 | trial step |    1.000000 |    0.000014 |     -340.968507 | <-- min LBFGS
 +------------+-------------+-------------+-----------------+ <-- min LBFGS
  
 LBFGS: finished iteration     2 with enthalpy= -3.40968507E+002 eV
  
 +-----------+-----------------+-----------------+------------+-----+ <-- LBFGS
 | Parameter |      value      |    tolerance    |    units   | OK? | <-- LBFGS
 +-----------+-----------------+-----------------+------------+-----+ <-- LBFGS
 |  dE/ion   |   3.608250E-007 |   2.000000E-005 |         eV | Yes | <-- LBFGS
 |   Smax    |   8.531827E-004 |   1.000000E-001 |        GPa | Yes | <-- LBFGS
 +-----------+-----------------+-----------------+------------+-----+ <-- LBFGS
  
 LBFGS: Geometry optimization completed successfully.

================================================================================
 LBFGS: Final Configuration:
================================================================================
 
                           -------------------------------
                                      Unit Cell
                           -------------------------------
        Real Lattice(A)              Reciprocal Lattice(1/A)
     2.7342990     2.7342990     0.0000000        1.148957239   1.148957239  -1.148957239
     2.7342990     0.0000000     2.7342990        1.148957239  -1.148957239   1.148957239
    -0.0000000     2.7342990     2.7342990       -1.148957239   1.148957239   1.148957239
 
                       Lattice parameters(A)       Cell Angles
                    a =      3.866883          alpha =   60.000000
                    b =      3.866883          beta  =   60.000000
                    c =      3.866883          gamma =   60.000000
 
                Current cell volume =            40.885378 A**3
                            density =             1.373865 amu/A**3
                                    =             2.281357 g/cm^3
 
 LBFGS: Final Enthalpy     = -3.40968507E+002 eV
 LBFGS: Final bulk modulus unchanged from initial value
 
 ******************************** Symmetrised Forces ********************************
 *                                                                                  *
 *                           Cartesian components (eV/A)                            *
 * -------------------------------------------------------------------------------- *
 *                         x                    y                    z              *
 *                                                                                  *
 * Si              1      0.00000              0.00000              0.00000         *
 * Si              2      0.00000              0.00000              0.00000         *
 *                                                                                  *
 ************************************************************************************
 
 *********** Symmetrised Stress Tensor ***********
 *                                               *
 *          Cartesian components (GPa)           *
 * --------------------------------------------- *
 *             x             y             z     *
 *                                               *
 *  x     -0.000853      0.000000     -0.000000  *
 *  y      0.000000     -0.000853      0.000000  *
 *  z     -0.000000      0.000000     -0.000853  *
 *                                               *
 *  Pressure:    0.0009                          *
 *                                               *
 *************************************************
 
 Pseudo atomic calculation performed for Si 3s2 3p2
 
 Converged in 11 iterations to a total energy of -165.0655 eV
Charge spilling parameter for spin component 1 = 1.15%
 
            Orbital Populations       
     Ion    Atom   Orbital             Charge
  -------------------------------------------
     Si     1      S                    1.379
     Si     1      Px                   0.905
     Si     1      Py                   0.875
     Si     1      Pz                   0.842
     Si     2      S                    1.379
     Si     2      Px                   0.905
     Si     2      Py                   0.875
     Si     2      Pz                   0.842
  -------------------------------------------
                           Total:       8.000
  -------------------------------------------
 
     Atomic Populations (Mulliken)
     -----------------------------
Species          Ion     s      p      d      f     Total  Charge (e)
=====================================================================
  Si              1     1.38   2.62   0.00   0.00   4.00     0.00
  Si              2     1.38   2.62   0.00   0.00   4.00     0.00
=====================================================================
 
                 Bond                   Population      Length (A)
======================================================================
              Si 1 -- Si 2                   2.93        2.36797
======================================================================
 

Writing analysis data to Si.castep_bin

Writing model to Si.check
 
 A BibTeX formatted list of references used in this run has been written to 
 Si.bib
 
Initialisation time =      6.36 s
Calculation time    =     60.35 s
Finalisation time   =      0.37 s
Total time          =     67.09 s
Peak Memory Use     = 638132 kB
