 +-------------------------------------------------+
 |                                                 |
 |      CCC   AA    SSS  TTTTT  EEEEE  PPPP        |
 |     C     A  A  S       T    E      P   P       |
 |     C     AAAA   SS     T    EEE    PPPP        |
 |     C     A  A     S    T    E      P           |
 |      CCC  A  A  SSS     T    EEEEE  P           |
 |                                                 |
 +-------------------------------------------------+
 |                                                 |
 | Welcome to Academic Release CASTEP version 20.1 |          
 | Ab Initio Total Energy Program                  |
 |                                                 |
 | Authors:                                        |
 | M. Segall, M. Probert, C. Pickard, P. Hasnip,   |
 | S. Clark, K. Refson, J. R. Yates, M. Payne      |
 |                                                 |
 | Contributors:                                   |
 | P. Lindan, P. Haynes, J. White, V. Milman,      |
 | N. Govind, M. Gibson, P. Tulip, V. Cocula,      |
 | B. Montanari, D. Quigley, M. Glover,            |
 | L. Bernasconi, A. Perlov, M. Plummer,           |
 | E. McNellis, J. Meyer, J. Gale, D. Jochym       |
 | J. Aarons, B. Walker, R. Gillen, D. Jones       |
 | T. Green, I. J. Bush, C. J. Armstrong,          |
 | E. J. Higgins, E. L. Brown, M. S. McFly,        |
 | J. Wilkins, B-C. Shih, P. J. P. Byrne,          |
 | R. J. Maurer, J. C. Womack, A. Bartok-Partay    |
 |                                                 |
 | Copyright (c) 2000 - 2019                       |
 |                                                 |
 |     Distributed under the terms of an           |
 |     Agreement between the United Kingdom        |
 |     Car-Parrinello (UKCP) Consortium,           |
 |     Daresbury Laboratory and Accelrys, Inc.     |
 |                                                 |
 | Please cite                                     |
 |                                                 |
 |     "First principles methods using CASTEP"     |
 |                                                 |
 |         Zeitschrift fuer Kristallographie       |
 |           220(5-6) pp. 567-570 (2005)           |
 |                                                 |
 | S. J. Clark, M. D. Segall, C. J. Pickard,       |
 | P. J. Hasnip, M. J. Probert, K. Refson,         |
 | M. C. Payne                                     |
 |                                                 |
 |       in all publications arising from          |
 |              your use of CASTEP                 |
 |                                                 |
 +-------------------------------------------------+
 |                                                 |
 |              http://www.castep.org              |
 |                                                 |
 +-------------------------------------------------+
 
 
 
 Compiled for linux_x86_64_ifort17 on Mon, 15 Jul 2019 14:09:47 +0100
 from code version 5dacc5c3c63b+  Mon, 10 Jun 2019 22:27:09 +0100
 Compiler: Intel Fortran 17.0.1.132; Optimisation: fast
 MATHLIBS: Intel MKL(2017.0.1) (LAPACK version 3.6.0)
 FFT Lib : mkl
 Fundamental constants values: CODATA 2014
 
 Run started: Mon, 15 Jul 2019 15:37:16 +0100
 
 Atomic calculation performed for Fe: 1s2 2s2 2p6 3s2 3p6 3d6 4s2
 
 Converged in 104 iterations to an ae energy of -34625.101 eV
 
   ============================================================                
   | Pseudopotential Report - Date of generation 15-07-2019   |                
   ------------------------------------------------------------                
   | Element: Fe Ionic charge:  8.00 Level of theory: PBE     |                
   | Atomic Solver: Koelling-Harmon                           |                
   |                                                          |                
   |               Reference Electronic Structure             |                
   |         Orbital         Occupation         Energy        |                
   |            3d              6.000           -0.276        |                
   |            4s              2.000           -0.194        |                
   |                                                          |                
   |                 Pseudopotential Definition               |                
   |        Beta     l      e      Rc     scheme   norm       |                
   |          1      0   -0.194   2.399     qc      0         |                
   |          2      0    0.250   2.399     qc      0         |                
   |          3      1    0.000   2.399     qc      0         |                
   |          4      1    0.250   2.399     qc      0         |                
   |          5      2   -0.276   1.997     qc      0         |                
   |          6      2    0.250   1.997     qc      0         |                
   |         loc     3    0.000   2.399     pn      0         |                
   |                                                          |                
   | Augmentation charge Rinner = 1.000                       |                
   | Partial core correction Rc = 1.000                       |                
   ------------------------------------------------------------                
   | "3|2.4|2.4|1.0|8|9|10|40:41:32U2U2(qc=5.5)"              |                
   ------------------------------------------------------------                
   |      Author: Chris J. Pickard, Cambridge University      |                
   ============================================================                
 
 Pseudo atomic calculation performed for Fe 3d6 4s2
 
 Converged in 31 iterations to a total energy of -853.7833 eV
 Calculation not parallelised.

 ************************************ Title ************************************
 

 ***************************** General Parameters ******************************
  
 output verbosity                               : normal  (1)
 write checkpoint data to                       : Fe.check
 type of calculation                            : geometry optimization
 stress calculation                             : off
 density difference calculation                 : off
 electron localisation func (ELF) calculation   : off
 Hirshfeld analysis                             : off
 molecular orbital projected DOS                : off
 deltaSCF calculation                           : off
 unlimited duration calculation
 timing information                             : on
 memory usage estimate                          : on
 write extra output files                       : on
 write final potential to formatted file        : off
 write final density to formatted file          : off
 write BibTeX reference list                    : on
 write OTFG pseudopotential files               : on
 write electrostatic potential file             : on
 write bands file                               : on
 checkpoint writing                             : both castep_bin and check files
  
 output         length unit                     : A
 output           mass unit                     : amu
 output           time unit                     : ps
 output         charge unit                     : e
 output           spin unit                     : hbar/2
 output         energy unit                     : eV
 output          force unit                     : eV/A
 output       velocity unit                     : A/ps
 output       pressure unit                     : GPa
 output     inv_length unit                     : 1/A
 output      frequency unit                     : cm-1
 output force constant unit                     : eV/A**2
 output         volume unit                     : A**3
 output   IR intensity unit                     : (D/A)**2/amu
 output         dipole unit                     : D
 output         efield unit                     : eV/A/e
 output        entropy unit                     : J/mol/K
  
 wavefunctions paging                           : none
 random number generator seed                   : randomised (153743426)
 data distribution                              : optimal for this architecture
 optimization strategy                          : maximize speed(+++)

 *********************** Exchange-Correlation Parameters ***********************
  
 using functional                               : Perdew Burke Ernzerhof
 relativistic treatment                         : Koelling-Harmon
 DFT+D: Semi-empirical dispersion correction    : off

 ************************* Pseudopotential Parameters **************************
  
 pseudopotential representation                 : reciprocal space
 <beta|phi> representation                      : reciprocal space
 spin-orbit coupling                            : off

 **************************** Basis Set Parameters *****************************
  
 basis set accuracy                             : EXTREME
 plane wave basis set cut-off                   :   435.3822   eV
 size of standard grid                          :     1.7500
 size of   fine   grid                          :     4.0000
 size of   fine   gmax                          :    42.7596   1/A
 finite basis set correction                    : automatic
 number of sample energies                      :          3
           sample  spacing                      :     5.0000   eV

 **************************** Electronic Parameters ****************************
  
 number of  electrons                           :  8.000    
 net charge of system                           :  0.000    
 net spin   of system                           :  1.000    
 number of  up  spins                           :  4.500    
 number of down spins                           :  3.500    
 treating system as spin-polarized
 number of bands                                :          9

 ********************* Electronic Minimization Parameters **********************
  
 Method: Treating system as metallic with density mixing treatment of electrons,
         and number of  SD  steps               :          1
         and number of  CG  steps               :          4
  
 total energy / atom convergence tol.           : 0.1000E-04   eV
 eigen-energy convergence tolerance             : 0.1000E-05   eV
 max force / atom convergence tol.              : ignored
 convergence tolerance window                   :          3   cycles
 max. number of SCF cycles                      :         30
 number of fixed-spin iterations                :         10
 smearing scheme                                : Gaussian
 smearing width                                 : 0.2000       eV
 Fermi energy convergence tolerance             : 0.2721E-13   eV
 periodic dipole correction                     : NONE

 ************************** Density Mixing Parameters **************************
  
 density-mixing scheme                          : Broyden
 max. length of mixing history                  :         20
 charge density mixing amplitude                : 0.8000    
   spin density mixing amplitude                :  2.000    

 *********************** Population Analysis Parameters ************************
  
 Population analysis with cutoff                :  3.000       A
 Population analysis output                     : summary and pdos components

 ********************** Geometry Optimization Parameters ***********************
  
 optimization method                            : LBFGS
 max. no. of LBFGS updates                      : unbounded
 variable cell method                           : fixed basis quality
 max. number of steps                           :         30
 estimated bulk modulus                         :  500.0       GPa
 estimated <frequency>                          :  1668.       cm-1
 geom line minimiser                            : on
 with line minimiser tolerance                  :     0.4000
  with spin fully able to relax for all steps
 total energy convergence tolerance             : 0.2000E-04   eV/atom
        max ionic |force| tolerance             : 0.5000E-01   eV/A
 max ionic |displacement| tolerance             : 0.1000E-02   A
   max |stress component| tolerance             : 0.1000       GPa
 convergence tolerance window                   :          2   steps
 backup results every                           :          5   steps
 write geom trajectory file                     : on

 *******************************************************************************
  
 
                           -------------------------------
                                      Unit Cell
                           -------------------------------
        Real Lattice(A)                      Reciprocal Lattice(1/A)
    -1.4345000     1.4345000     1.4345000        0.000000000   2.190026249   2.190026249
     1.4345000    -1.4345000     1.4345000        2.190026249   0.000000000   2.190026249
     1.4345000     1.4345000    -1.4345000        2.190026249   2.190026249   0.000000000
 
                       Lattice parameters(A)       Cell Angles
                    a =      2.484627          alpha =  109.471221
                    b =      2.484627          beta  =  109.471221
                    c =      2.484627          gamma =  109.471221
 
                       Current cell volume =            11.807600       A**3
                                   density =             4.729581   AMU/A**3
                                           =             7.853654     g/cm^3
 
                           -------------------------------
                                     Cell Contents
                           -------------------------------
                         Total number of ions in cell =    1
                      Total number of species in cell =    1
                        Max number of any one species =    1
 
            xxxxxxxxxxxxxxxxxxxxxxxxxxxxxxxxxxxxxxxxxxxxxxxxxxxxxxxxxxxx
            x  Element    Atom        Fractional coordinates of atoms  x
            x            Number           u          v          w      x
            x----------------------------------------------------------x
            x  Fe           1         0.000000   0.000000   0.000000   x 
            xxxxxxxxxxxxxxxxxxxxxxxxxxxxxxxxxxxxxxxxxxxxxxxxxxxxxxxxxxxx
 
 
                         No user defined ionic velocities
 
                           -------------------------------
                                   Details of Species
                           -------------------------------
 
                               Mass of species in AMU
                                    Fe   55.8450000
 
                          Electric Quadrupole Moment (Barn)
                                    Fe    0.1600000 Isotope 57
 
                          Files used for pseudopotentials:
                                    Fe 3|2.4|2.4|1.0|8|9|10|40:41:32U2U2(qc=5.5)
 
                           -------------------------------
                              k-Points For BZ Sampling
                           -------------------------------
                       MP grid size for SCF calculation is 36 36 36
                            with an offset of   0.000  0.000  0.000
                       Number of kpoints used =          1230
 
                           -------------------------------
                               Symmetry and Constraints
                           -------------------------------
 
                      Maximum deviation from symmetry =  0.00000         ANG
 
                      Number of symmetry operations   =          48
                      Number of ionic constraints     =           3
                      Point group of crystal =    32: Oh, m-3m, 4/m -3 2/m
                      Space group of crystal =   229: Im-3m, -I 4 2 3
 
             Set iprint > 1 for details on symmetry rotations/translations
 
                         Centre of mass is constrained
             Set iprint > 1 for details of linear ionic constraints
 
                         Number of cell constraints= 5
                         Cell constraints are:  1 1 1 0 0 0
 
                         External pressure/stress (GPa)
                          0.00000   0.00000   0.00000
                                    0.00000   0.00000
                                              0.00000
  
+---------------- MEMORY AND SCRATCH DISK ESTIMATES PER PROCESS --------------+
|                                                     Memory          Disk    |
| Baseline code, static data and system overhead       53.0 MB         0.0 MB |
| BLAS internal memory storage                          0.0 MB         0.0 MB |
| Model and support data                              354.2 MB         0.0 MB |
| Electronic energy minimisation requirements         191.1 MB         0.0 MB |
| Force calculation requirements                       10.6 MB         0.0 MB |
|                                               ----------------------------- |
| Approx. total storage required per process          598.4 MB         0.0 MB |
|                                                                             |
| Requirements will fluctuate during execution and may exceed these estimates |
+-----------------------------------------------------------------------------+
Calculating finite basis set correction with  3 cut-off energies.
Calculating total energy with cut-off of  425.382 eV.
------------------------------------------------------------------------ <-- SCF
SCF loop      Energy           Fermi           Energy gain       Timer   <-- SCF
                               energy          per atom          (sec)   <-- SCF
------------------------------------------------------------------------ <-- SCF
Initial  -6.81551182E+002  0.00000000E+000                        64.01  <-- SCF
      1  -8.52717071E+002  7.36774075E+000   1.71165889E+002     104.68  <-- SCF
      2  -8.62389504E+002  5.62208047E+000   9.67243334E+000     133.60  <-- SCF
      3  -8.62559826E+002  5.59644670E+000   1.70321913E-001     161.23  <-- SCF
      4  -8.62741945E+002  4.12995849E+000   1.82119074E-001     196.88  <-- SCF
      5  -8.62602300E+002  5.02561724E+000  -1.39644915E-001     232.29  <-- SCF
      6  -8.62603923E+002  4.91494771E+000   1.62291789E-003     267.88  <-- SCF
      7  -8.62603162E+002  4.97114191E+000  -7.61836557E-004     303.49  <-- SCF
      8  -8.62603139E+002  4.98157624E+000  -2.21553602E-005     336.94  <-- SCF
      9  -8.62603129E+002  4.98596513E+000  -9.86805221E-006     363.10  <-- SCF
     10  -8.62712801E+002  5.00559426E+000   1.09671114E-001     388.68  <-- SCF
     11  -8.62870763E+002  4.97724911E+000   1.57962599E-001     424.05  <-- SCF
     12  -8.62918944E+002  4.98025895E+000   4.81812102E-002     459.26  <-- SCF
     13  -8.62924172E+002  4.95899505E+000   5.22711374E-003     494.85  <-- SCF
     14  -8.62926386E+002  4.96437761E+000   2.21405377E-003     529.99  <-- SCF
     15  -8.62926551E+002  4.93290798E+000   1.65369900E-004     565.07  <-- SCF
     16  -8.62926493E+002  4.94919430E+000  -5.78472619E-005     596.87  <-- SCF
     17  -8.62926497E+002  4.94740781E+000   3.60747419E-006     620.55  <-- SCF
     18  -8.62926499E+002  4.94772364E+000   2.56724026E-006     643.86  <-- SCF
------------------------------------------------------------------------ <-- SCF
 
Integrated Spin Density     =     2.22838     hbar/2                        
Integrated |Spin Density|   =     2.34751     hbar/2                        
 
Final energy, E             =  -862.9064280645     eV
Final free energy (E-TS)    =  -862.9264992814     eV
(energies not corrected for finite basis set)
 
NB est. 0K energy (E-0.5TS)      =  -862.9164636730     eV
 
Calculating total energy with cut-off of  430.382 eV.
------------------------------------------------------------------------ <-- SCF
SCF loop      Energy           Fermi           Energy gain       Timer   <-- SCF
                               energy          per atom          (sec)   <-- SCF
------------------------------------------------------------------------ <-- SCF
Initial  -8.62906444E+002  0.00000000E+000                       648.17  <-- SCF
      1  -8.62926541E+002  4.94776725E+000   2.00967780E-002     680.23  <-- SCF
      2  -8.62926541E+002  4.94776725E+000   3.80799923E-010     704.39  <-- SCF
      3  -8.62926541E+002  4.94771014E+000   1.33222935E-008     728.57  <-- SCF
      4  -8.62926541E+002  4.94778280E+000  -1.82327661E-010     752.64  <-- SCF
------------------------------------------------------------------------ <-- SCF
 
Integrated Spin Density     =     2.22757     hbar/2                        
Integrated |Spin Density|   =     2.34732     hbar/2                        
 
Final energy, E             =  -862.9064698126     eV
Final free energy (E-TS)    =  -862.9265412076     eV
(energies not corrected for finite basis set)
 
NB est. 0K energy (E-0.5TS)      =  -862.9165055101     eV
 
Calculating total energy with cut-off of  435.382 eV.
------------------------------------------------------------------------ <-- SCF
SCF loop      Energy           Fermi           Energy gain       Timer   <-- SCF
                               energy          per atom          (sec)   <-- SCF
------------------------------------------------------------------------ <-- SCF
Initial  -8.62906486E+002  0.00000000E+000                       757.00  <-- SCF
      1  -8.62926561E+002  4.94756203E+000   2.00757220E-002     788.51  <-- SCF
      2  -8.62926561E+002  4.94756203E+000   2.13940145E-010     812.75  <-- SCF
      3  -8.62926561E+002  4.94802947E+000   1.90621346E-008     836.90  <-- SCF
      4  -8.62926562E+002  4.94714417E+000   7.01155230E-008     861.11  <-- SCF
------------------------------------------------------------------------ <-- SCF
 
Integrated Spin Density     =     2.22764     hbar/2                        
Integrated |Spin Density|   =     2.34735     hbar/2                        
 
Final energy, E             =  -862.9064894829     eV
Final free energy (E-TS)    =  -862.9265615087     eV
(energies not corrected for finite basis set)
 
NB est. 0K energy (E-0.5TS)      =  -862.9165254958     eV
 
 For future reference: finite basis dEtot/dlog(Ecut) =      -0.002679eV
 Total energy corrected for finite basis set =    -862.926562 eV
 
+---------------- MEMORY AND SCRATCH DISK ESTIMATES PER PROCESS --------------+
|                                                     Memory          Disk    |
| Model and support data                              361.4 MB         0.0 MB |
| Electronic energy minimisation requirements         191.1 MB         0.0 MB |
| Geometry minimisation requirements                  289.2 MB         0.0 MB |
|                                               ----------------------------- |
| Approx. total storage required per process          841.8 MB         0.0 MB |
|                                                                             |
| Requirements will fluctuate during execution and may exceed these estimates |
+-----------------------------------------------------------------------------+
 
 
 *********** Symmetrised Stress Tensor ***********
 *                                               *
 *          Cartesian components (GPa)           *
 * --------------------------------------------- *
 *             x             y             z     *
 *                                               *
 *  x      6.740201      0.000000      0.000000  *
 *  y      0.000000      6.740201     -0.000000  *
 *  z      0.000000     -0.000000      6.740201  *
 *                                               *
 *  Pressure:   -6.7402                          *
 *                                               *
 *************************************************
 LBFGS: finished iteration     0 with enthalpy= -8.62926562E+002 eV
  
 +-----------+-----------------+-----------------+------------+-----+ <-- LBFGS
 | Parameter |      value      |    tolerance    |    units   | OK? | <-- LBFGS
 +-----------+-----------------+-----------------+------------+-----+ <-- LBFGS
 |  dE/ion   |   0.000000E+000 |   2.000000E-005 |         eV | No  | <-- LBFGS
 |   Smax    |   6.740201E+000 |   1.000000E-001 |        GPa | No  | <-- LBFGS
 +-----------+-----------------+-----------------+------------+-----+ <-- LBFGS
  

================================================================================
 Starting LBFGS iteration          1 ...
================================================================================
  
 +------------+-------------+-------------+-----------------+ <-- min LBFGS
 |    Step    |   lambda    |   F.delta'  |    enthalpy     | <-- min LBFGS
 +------------+-------------+-------------+-----------------+ <-- min LBFGS
 |  previous  |    0.000000 |    0.031618 |     -862.926562 | <-- min LBFGS
 +------------+-------------+-------------+-----------------+ <-- min LBFGS
  

--------------------------------------------------------------------------------
 LBFGS: starting iteration         1 with trial guess (lambda=  1.000000)
--------------------------------------------------------------------------------
 
                           -------------------------------
                                      Unit Cell
                           -------------------------------
        Real Lattice(A)              Reciprocal Lattice(1/A)
    -1.4280541     1.4280541     1.4280541        0.000000000   2.199911479   2.199911479
     1.4280541    -1.4280541     1.4280541        2.199911479   0.000000000   2.199911479
     1.4280541     1.4280541    -1.4280541        2.199911479   2.199911479   0.000000000
 
                       Lattice parameters(A)       Cell Angles
                    a =      2.473462          alpha =  109.471221
                    b =      2.473462          beta  =  109.471221
                    c =      2.473462          gamma =  109.471221
 
                Current cell volume =            11.649143 A**3
                            density =             4.793915 amu/A**3
                                    =             7.960483 g/cm^3
 
------------------------------------------------------------------------ <-- SCF
SCF loop      Energy           Fermi           Energy gain       Timer   <-- SCF
                               energy          per atom          (sec)   <-- SCF
------------------------------------------------------------------------ <-- SCF
Initial  -8.62889596E+002  0.00000000E+000                       876.72  <-- SCF
      1  -8.62982501E+002  5.51302366E+000   9.29053482E-002     911.09  <-- SCF
      2  -8.62982518E+002  5.51302305E+000   1.74553387E-005     944.52  <-- SCF
      3  -8.63047778E+002  4.43009166E+000   6.52600101E-002     980.13  <-- SCF
      4  -8.62931622E+002  5.05932546E+000  -1.16156655E-001    1015.66  <-- SCF
      5  -8.62932202E+002  5.08028078E+000   5.80528145E-004    1051.67  <-- SCF
      6  -8.62932268E+002  5.07828349E+000   6.62354510E-005    1083.44  <-- SCF
      7  -8.62932275E+002  5.08040581E+000   6.91669407E-006    1107.42  <-- SCF
      8  -8.62932277E+002  5.08116991E+000   1.48825755E-006    1131.21  <-- SCF
------------------------------------------------------------------------ <-- SCF
 
Integrated Spin Density     =     2.20531     hbar/2                        
Integrated |Spin Density|   =     2.32042     hbar/2                        
 
Final energy, E             =  -862.9125054807     eV
Final free energy (E-TS)    =  -862.9322768718     eV
(energies not corrected for finite basis set)
 
NB est. 0K energy (E-0.5TS)      =  -862.9223911762     eV
 
 
 *********** Symmetrised Stress Tensor ***********
 *                                               *
 *          Cartesian components (GPa)           *
 * --------------------------------------------- *
 *             x             y             z     *
 *                                               *
 *  x      4.692152      0.000000      0.000000  *
 *  y      0.000000      4.692152      0.000000  *
 *  z      0.000000      0.000000      4.692152  *
 *                                               *
 *  Pressure:   -4.6922                          *
 *                                               *
 *************************************************
  
 +------------+-------------+-------------+-----------------+ <-- min LBFGS
 |    Step    |   lambda    |   F.delta'  |    enthalpy     | <-- min LBFGS
 +------------+-------------+-------------+-----------------+ <-- min LBFGS
 |  previous  |    0.000000 |    0.031618 |     -862.926562 | <-- min LBFGS
 | trial step |    1.000000 |    0.021813 |     -862.932277 | <-- min LBFGS
 +------------+-------------+-------------+-----------------+ <-- min LBFGS
  

--------------------------------------------------------------------------------
 LBFGS: improving iteration         1 with line minimization (lambda=  3.224789)
--------------------------------------------------------------------------------
 
                           -------------------------------
                                      Unit Cell
                           -------------------------------
        Real Lattice(A)              Reciprocal Lattice(1/A)
    -1.4137134     1.4137134     1.4137134        0.000000000   2.222227394   2.222227394
     1.4137134    -1.4137134     1.4137134        2.222227394   0.000000000   2.222227394
     1.4137134     1.4137134    -1.4137134        2.222227394   2.222227394   0.000000000
 
                       Lattice parameters(A)       Cell Angles
                    a =      2.448623          alpha =  109.471221
                    b =      2.448623          beta  =  109.471221
                    c =      2.448623          gamma =  109.471221
 
                Current cell volume =            11.301709 A**3
                            density =             4.941288 amu/A**3
                                    =             8.205202 g/cm^3
 
------------------------------------------------------------------------ <-- SCF
SCF loop      Energy           Fermi           Energy gain       Timer   <-- SCF
                               energy          per atom          (sec)   <-- SCF
------------------------------------------------------------------------ <-- SCF
Initial  -8.62805296E+002  0.00000000E+000                      1146.79  <-- SCF
      1  -8.63170388E+002  6.35199225E+000   3.65092532E-001    1180.64  <-- SCF
      2  -8.63170480E+002  6.35198890E+000   9.15673041E-005    1215.97  <-- SCF
      3  -8.63398002E+002  4.07093546E+000   2.27522311E-001    1251.00  <-- SCF
      4  -8.62933879E+002  5.35983370E+000  -4.64122844E-001    1286.39  <-- SCF
      5  -8.62936220E+002  5.38560589E+000   2.34090994E-003    1322.00  <-- SCF
      6  -8.62936610E+002  5.38293326E+000   3.89884671E-004    1355.95  <-- SCF
      7  -8.62936605E+002  5.38727368E+000  -5.45115023E-006    1380.00  <-- SCF
      8  -8.62936612E+002  5.38926989E+000   7.63560449E-006    1404.39  <-- SCF
------------------------------------------------------------------------ <-- SCF
 
Integrated Spin Density     =     2.15914     hbar/2                        
Integrated |Spin Density|   =     2.26423     hbar/2                        
 
Final energy, E             =  -862.9172560251     eV
Final free energy (E-TS)    =  -862.9366122634     eV
(energies not corrected for finite basis set)
 
NB est. 0K energy (E-0.5TS)      =  -862.9269341442     eV
 
 
 *********** Symmetrised Stress Tensor ***********
 *                                               *
 *          Cartesian components (GPa)           *
 * --------------------------------------------- *
 *             x             y             z     *
 *                                               *
 *  x     -0.777260     -0.000000     -0.000000  *
 *  y     -0.000000     -0.777260      0.000000  *
 *  z     -0.000000      0.000000     -0.777260  *
 *                                               *
 *  Pressure:    0.7773                          *
 *                                               *
 *************************************************
  
 +------------+-------------+-------------+-----------------+ <-- min LBFGS
 |    Step    |   lambda    |   F.delta'  |    enthalpy     | <-- min LBFGS
 +------------+-------------+-------------+-----------------+ <-- min LBFGS
 |  previous  |    0.000000 |    0.031618 |     -862.926562 | <-- min LBFGS
 | trial step |    1.000000 |    0.021813 |     -862.932277 | <-- min LBFGS
 |  line step |    3.224789 |   -0.003541 |     -862.936612 | <-- min LBFGS
 +------------+-------------+-------------+-----------------+ <-- min LBFGS
  
 LBFGS: finished iteration     1 with enthalpy= -8.62936612E+002 eV
  
 +-----------+-----------------+-----------------+------------+-----+ <-- LBFGS
 | Parameter |      value      |    tolerance    |    units   | OK? | <-- LBFGS
 +-----------+-----------------+-----------------+------------+-----+ <-- LBFGS
 |  dE/ion   |   1.005070E-002 |   2.000000E-005 |         eV | No  | <-- LBFGS
 |   Smax    |   7.772602E-001 |   1.000000E-001 |        GPa | No  | <-- LBFGS
 +-----------+-----------------+-----------------+------------+-----+ <-- LBFGS
  

================================================================================
 Starting LBFGS iteration          2 ...
================================================================================
  
 +------------+-------------+-------------+-----------------+ <-- min LBFGS
 |    Step    |   lambda    |   F.delta'  |    enthalpy     | <-- min LBFGS
 +------------+-------------+-------------+-----------------+ <-- min LBFGS
 |  previous  |    0.000000 |    0.003541 |     -862.936612 | <-- min LBFGS
 +------------+-------------+-------------+-----------------+ <-- min LBFGS
  

--------------------------------------------------------------------------------
 LBFGS: starting iteration         2 with trial guess (lambda=  1.000000)
--------------------------------------------------------------------------------
 
                           -------------------------------
                                      Unit Cell
                           -------------------------------
        Real Lattice(A)              Reciprocal Lattice(1/A)
    -1.4158070     1.4158070     1.4158070        0.000000000   2.218941311   2.218941311
     1.4158070    -1.4158070     1.4158070        2.218941311   0.000000000   2.218941311
     1.4158070     1.4158070    -1.4158070        2.218941311   2.218941311   0.000000000
 
                       Lattice parameters(A)       Cell Angles
                    a =      2.452250          alpha =  109.471221
                    b =      2.452250          beta  =  109.471221
                    c =      2.452250          gamma =  109.471221
 
                Current cell volume =            11.351994 A**3
                            density =             4.919400 amu/A**3
                                    =             8.168856 g/cm^3
 
------------------------------------------------------------------------ <-- SCF
SCF loop      Energy           Fermi           Energy gain       Timer   <-- SCF
                               energy          per atom          (sec)   <-- SCF
------------------------------------------------------------------------ <-- SCF
Initial  -8.62914929E+002  0.00000000E+000                      1419.78  <-- SCF
      1  -8.62942179E+002  5.20056406E+000   2.72494341E-002    1453.80  <-- SCF
      2  -8.62942181E+002  5.20056400E+000   1.69586060E-006    1479.70  <-- SCF
      3  -8.62948904E+002  5.55817492E+000   6.72302915E-003    1515.04  <-- SCF
      4  -8.62936707E+002  5.35186623E+000  -1.21968790E-002    1550.36  <-- SCF
      5  -8.62936744E+002  5.34326203E+000   3.77044523E-005    1578.09  <-- SCF
      6  -8.62936748E+002  5.34374637E+000   3.96663000E-006    1602.07  <-- SCF
      7  -8.62936749E+002  5.34302948E+000   1.00979594E-006    1625.94  <-- SCF
------------------------------------------------------------------------ <-- SCF
 
Integrated Spin Density     =     2.16414     hbar/2                        
Integrated |Spin Density|   =     2.27199     hbar/2                        
 
Final energy, E             =  -862.9173492859     eV
Final free energy (E-TS)    =  -862.9367494283     eV
(energies not corrected for finite basis set)
 
NB est. 0K energy (E-0.5TS)      =  -862.9270493571     eV
 
 
 *********** Symmetrised Stress Tensor ***********
 *                                               *
 *          Cartesian components (GPa)           *
 * --------------------------------------------- *
 *             x             y             z     *
 *                                               *
 *  x      0.018643      0.000000      0.000000  *
 *  y      0.000000      0.018643     -0.000000  *
 *  z      0.000000     -0.000000      0.018643  *
 *                                               *
 *  Pressure:   -0.0186                          *
 *                                               *
 *************************************************
  
 +------------+-------------+-------------+-----------------+ <-- min LBFGS
 |    Step    |   lambda    |   F.delta'  |    enthalpy     | <-- min LBFGS
 +------------+-------------+-------------+-----------------+ <-- min LBFGS
 |  previous  |    0.000000 |    0.003541 |     -862.936612 | <-- min LBFGS
 | trial step |    1.000000 |   -0.000085 |     -862.936750 | <-- min LBFGS
 +------------+-------------+-------------+-----------------+ <-- min LBFGS
  
 LBFGS: finished iteration     2 with enthalpy= -8.62936750E+002 eV
  
 +-----------+-----------------+-----------------+------------+-----+ <-- LBFGS
 | Parameter |      value      |    tolerance    |    units   | OK? | <-- LBFGS
 +-----------+-----------------+-----------------+------------+-----+ <-- LBFGS
 |  dE/ion   |   1.372579E-004 |   2.000000E-005 |         eV | No  | <-- LBFGS
 |   Smax    |   1.864348E-002 |   1.000000E-001 |        GPa | Yes | <-- LBFGS
 +-----------+-----------------+-----------------+------------+-----+ <-- LBFGS
  

================================================================================
 Starting LBFGS iteration          3 ...
================================================================================
  
 +------------+-------------+-------------+-----------------+ <-- min LBFGS
 |    Step    |   lambda    |   F.delta'  |    enthalpy     | <-- min LBFGS
 +------------+-------------+-------------+-----------------+ <-- min LBFGS
 |  previous  |    0.000000 |    0.000085 |     -862.936750 | <-- min LBFGS
 +------------+-------------+-------------+-----------------+ <-- min LBFGS
  

--------------------------------------------------------------------------------
 LBFGS: starting iteration         3 with trial guess (lambda=  1.000000)
--------------------------------------------------------------------------------
 
                           -------------------------------
                                      Unit Cell
                           -------------------------------
        Real Lattice(A)              Reciprocal Lattice(1/A)
    -1.4157578     1.4157578     1.4157578        0.000000000   2.219018397   2.219018397
     1.4157578    -1.4157578     1.4157578        2.219018397   0.000000000   2.219018397
     1.4157578     1.4157578    -1.4157578        2.219018397   2.219018397   0.000000000
 
                       Lattice parameters(A)       Cell Angles
                    a =      2.452164          alpha =  109.471221
                    b =      2.452164          beta  =  109.471221
                    c =      2.452164          gamma =  109.471221
 
                Current cell volume =            11.350811 A**3
                            density =             4.919913 amu/A**3
                                    =             8.169707 g/cm^3
 
------------------------------------------------------------------------ <-- SCF
SCF loop      Energy           Fermi           Energy gain       Timer   <-- SCF
                               energy          per atom          (sec)   <-- SCF
------------------------------------------------------------------------ <-- SCF
Initial  -8.62917367E+002  0.00000000E+000                      1641.38  <-- SCF
      1  -8.62936752E+002  5.34681639E+000   1.93849770E-002    1664.26  <-- SCF
      2  -8.62936752E+002  5.34681639E+000   1.93257653E-008    1688.16  <-- SCF
      3  -8.62936754E+002  5.33959228E+000   2.68710504E-006    1712.11  <-- SCF
      4  -8.62936749E+002  5.34376110E+000  -4.94006655E-006    1736.05  <-- SCF
------------------------------------------------------------------------ <-- SCF
 
Integrated Spin Density     =     2.16379     hbar/2                        
Integrated |Spin Density|   =     2.27187     hbar/2                        
 
Final energy, E             =  -862.9173499551     eV
Final free energy (E-TS)    =  -862.9367494932     eV
(energies not corrected for finite basis set)
 
NB est. 0K energy (E-0.5TS)      =  -862.9270497242     eV
 
 
 *********** Symmetrised Stress Tensor ***********
 *                                               *
 *          Cartesian components (GPa)           *
 * --------------------------------------------- *
 *             x             y             z     *
 *                                               *
 *  x     -0.040111     -0.000000      0.000000  *
 *  y     -0.000000     -0.040111      0.000000  *
 *  z      0.000000      0.000000     -0.040111  *
 *                                               *
 *  Pressure:    0.0401                          *
 *                                               *
 *************************************************
  
 +------------+-------------+-------------+-----------------+ <-- min LBFGS
 |    Step    |   lambda    |   F.delta'  |    enthalpy     | <-- min LBFGS
 +------------+-------------+-------------+-----------------+ <-- min LBFGS
 |  previous  |    0.000000 |    0.000085 |     -862.936750 | <-- min LBFGS
 | trial step |    1.000000 |   -0.000183 |     -862.936750 | <-- min LBFGS
 +------------+-------------+-------------+-----------------+ <-- min LBFGS
  
 LBFGS: finished iteration     3 with enthalpy= -8.62936750E+002 eV
  
 +-----------+-----------------+-----------------+------------+-----+ <-- LBFGS
 | Parameter |      value      |    tolerance    |    units   | OK? | <-- LBFGS
 +-----------+-----------------+-----------------+------------+-----+ <-- LBFGS
 |  dE/ion   |   1.846603E-007 |   2.000000E-005 |         eV | Yes | <-- LBFGS
 |   Smax    |   4.011108E-002 |   1.000000E-001 |        GPa | Yes | <-- LBFGS
 +-----------+-----------------+-----------------+------------+-----+ <-- LBFGS
  
 LBFGS: Geometry optimization completed successfully.

================================================================================
 LBFGS: Final Configuration:
================================================================================
 
                           -------------------------------
                                      Unit Cell
                           -------------------------------
        Real Lattice(A)              Reciprocal Lattice(1/A)
    -1.4157578     1.4157578     1.4157578        0.000000000   2.219018397   2.219018397
     1.4157578    -1.4157578     1.4157578        2.219018397   0.000000000   2.219018397
     1.4157578     1.4157578    -1.4157578        2.219018397   2.219018397   0.000000000
 
                       Lattice parameters(A)       Cell Angles
                    a =      2.452164          alpha =  109.471221
                    b =      2.452164          beta  =  109.471221
                    c =      2.452164          gamma =  109.471221
 
                Current cell volume =            11.350811 A**3
                            density =             4.919913 amu/A**3
                                    =             8.169707 g/cm^3
 
 LBFGS: Final Enthalpy     = -8.62936750E+002 eV
 LBFGS: Final bulk modulus =     178.89949 GPa
 
 ******************************** Symmetrised Forces ********************************
 *                                                                                  *
 *                           Cartesian components (eV/A)                            *
 * -------------------------------------------------------------------------------- *
 *                         x                    y                    z              *
 *                                                                                  *
 * Fe              1      0.00000              0.00000              0.00000         *
 *                                                                                  *
 ************************************************************************************
 
 *********** Symmetrised Stress Tensor ***********
 *                                               *
 *          Cartesian components (GPa)           *
 * --------------------------------------------- *
 *             x             y             z     *
 *                                               *
 *  x     -0.040111     -0.000000      0.000000  *
 *  y     -0.000000     -0.040111      0.000000  *
 *  z      0.000000      0.000000     -0.040111  *
 *                                               *
 *  Pressure:    0.0401                          *
 *                                               *
 *************************************************
 
 Pseudo atomic calculation performed for Fe 3d6 4s2
 
 Converged in 31 iterations to a total energy of -853.7833 eV
Charge spilling parameter for spin component 1 = 0.11%
Charge spilling parameter for spin component 2 = 0.43%
 
                   Orbital Populations                  
  ---------------------------------------------------------------
     Ion    Atom   Orbital              Up        Down      Spin
  ---------------------------------------------------------------
     Fe     1      Dzz                  0.949     0.319     0.629
     Fe     1      Dzy                  0.865     0.512     0.354
     Fe     1      Dzx                  0.862     0.506     0.356
     Fe     1      Dxx-yy               0.942     0.318     0.624
     Fe     1      Dxy                  0.865     0.508     0.356
     Fe     1      S                    0.357     0.378    -0.021
     Fe     1      Px                   0.082     0.127    -0.045
     Fe     1      Py                   0.075     0.120    -0.045
     Fe     1      Pz                   0.086     0.130    -0.043
  ---------------------------------------------------------------
                           Total:       5.082     2.918     2.164
  ---------------------------------------------------------------
 
     Atomic Populations (Mulliken)
     -----------------------------
Species          Ion Spin      s      p      d      f     Total  Charge(e)   Spin(hbar/2)
=========================================================================================
  Fe              1   up:     0.36   0.24   4.48   0.00   5.08     0.00        2.16
                  1   dn:     0.38   0.38   2.16   0.00   2.92
=========================================================================================
 
                 Bond                   Population        Spin       Length (A)
================================================================================
================================================================================
 

Writing analysis data to Fe.castep_bin

Writing model to Fe.check
 
 A BibTeX formatted list of references used in this run has been written to 
 Fe.bib
 
Initialisation time =     60.63 s
Calculation time    =   1691.35 s
Finalisation time   =      1.71 s
Total time          =   1753.70 s
Peak Memory Use     = 1015168 kB
