 +-------------------------------------------------+
 |                                                 |
 |      CCC   AA    SSS  TTTTT  EEEEE  PPPP        |
 |     C     A  A  S       T    E      P   P       |
 |     C     AAAA   SS     T    EEE    PPPP        |
 |     C     A  A     S    T    E      P           |
 |      CCC  A  A  SSS     T    EEEEE  P           |
 |                                                 |
 +-------------------------------------------------+
 |                                                 |
 | Welcome to Academic Release CASTEP version 20.1 |          
 | Ab Initio Total Energy Program                  |
 |                                                 |
 | Authors:                                        |
 | M. Segall, M. Probert, C. Pickard, P. Hasnip,   |
 | S. Clark, K. Refson, J. R. Yates, M. Payne      |
 |                                                 |
 | Contributors:                                   |
 | P. Lindan, P. Haynes, J. White, V. Milman,      |
 | N. Govind, M. Gibson, P. Tulip, V. Cocula,      |
 | B. Montanari, D. Quigley, M. Glover,            |
 | L. Bernasconi, A. Perlov, M. Plummer,           |
 | E. McNellis, J. Meyer, J. Gale, D. Jochym       |
 | J. Aarons, B. Walker, R. Gillen, D. Jones       |
 | T. Green, I. J. Bush, C. J. Armstrong,          |
 | E. J. Higgins, E. L. Brown, M. S. McFly,        |
 | J. Wilkins, B-C. Shih, P. J. P. Byrne,          |
 | R. J. Maurer, J. C. Womack, A. Bartok-Partay    |
 |                                                 |
 | Copyright (c) 2000 - 2019                       |
 |                                                 |
 |     Distributed under the terms of an           |
 |     Agreement between the United Kingdom        |
 |     Car-Parrinello (UKCP) Consortium,           |
 |     Daresbury Laboratory and Accelrys, Inc.     |
 |                                                 |
 | Please cite                                     |
 |                                                 |
 |     "First principles methods using CASTEP"     |
 |                                                 |
 |         Zeitschrift fuer Kristallographie       |
 |           220(5-6) pp. 567-570 (2005)           |
 |                                                 |
 | S. J. Clark, M. D. Segall, C. J. Pickard,       |
 | P. J. Hasnip, M. J. Probert, K. Refson,         |
 | M. C. Payne                                     |
 |                                                 |
 |       in all publications arising from          |
 |              your use of CASTEP                 |
 |                                                 |
 +-------------------------------------------------+
 |                                                 |
 |              http://www.castep.org              |
 |                                                 |
 +-------------------------------------------------+
 
 
 
 Compiled for linux_x86_64_ifort17 on Fri, 05 Jul 2019 11:35:54 +0100
 from code version 5dacc5c3c63b+  Mon, 10 Jun 2019 22:27:09 +0100
 Compiler: Intel Fortran 17.0.1.132; Optimisation: fast
 MATHLIBS: Intel MKL(2017.0.1) (LAPACK version 3.6.0)
 FFT Lib : mkl
 Fundamental constants values: CODATA 2014
 
 Run started: Mon, 08 Jul 2019 11:00:01 +0100
 Info: number of up-spin electrons is not equal to the
       number of down-spins but spin_polarized=false
     - consider setting spin_polarized=true.
 
 Atomic calculation performed for Na: 1s2 2s2 2p6 3s1
 
 Exceeded max iterations: converged to 0.000001167 eV
 The ae energy is -4422.136 eV
 
   ============================================================                
   | Pseudopotential Report - Date of generation  8-07-2019   |                
   ------------------------------------------------------------                
   | Element: Na Ionic charge:  9.00 Level of theory: RSCAN   |                
   | Atomic Solver: Koelling-Harmon                           |                
   |                                                          |                
   |               Reference Electronic Structure             |                
   |         Orbital         Occupation         Energy        |                
   |            2s              2.000           -2.187        |                
   |            2p              6.000           -1.101        |                
   |            3s              1.000           -0.100        |                
   |                                                          |                
   |                 Pseudopotential Definition               |                
   |        Beta     l      e      Rc     scheme   norm       |                
   |          1      0   -2.187   1.297     qc      0         |                
   |          2      0   -0.100   1.297     qc      0         |                
   |          3      0    0.250   1.297     qc      0         |                
   |          4      1   -1.101   1.297     qc      0         |                
   |          5      1    0.250   1.297     qc      0         |                
   |         loc     2    0.000   1.297     pn      0         |                
   |                                                          |                
   | Augmentation charge Rinner = 0.907                       |                
   | Partial core correction Rc = 0.907                       |                
   ------------------------------------------------------------                
   | "2|1.3|14|16|18|20U:30:21(qc=7)"                         |                
   ------------------------------------------------------------                
   |      Author: Chris J. Pickard, Cambridge University      |                
   ============================================================                
 
 Pseudo atomic calculation performed for Na 2s2 2p6 3s1
 
 Converged in 25 iterations to a total energy of -1307.4564 eV
 Calculation not parallelised.

 ************************************ Title ************************************
 

 ***************************** General Parameters ******************************
  
 output verbosity                               : normal  (1)
 write checkpoint data to                       : Na.check
 type of calculation                            : geometry optimization
 stress calculation                             : off
 density difference calculation                 : off
 electron localisation func (ELF) calculation   : off
 Hirshfeld analysis                             : off
 molecular orbital projected DOS                : off
 deltaSCF calculation                           : off
 unlimited duration calculation
 timing information                             : on
 memory usage estimate                          : on
 write extra output files                       : on
 write final potential to formatted file        : off
 write final density to formatted file          : off
 write BibTeX reference list                    : on
 write OTFG pseudopotential files               : on
 write electrostatic potential file             : on
 write bands file                               : on
 checkpoint writing                             : both castep_bin and check files
  
 output         length unit                     : A
 output           mass unit                     : amu
 output           time unit                     : ps
 output         charge unit                     : e
 output           spin unit                     : hbar/2
 output         energy unit                     : eV
 output          force unit                     : eV/A
 output       velocity unit                     : A/ps
 output       pressure unit                     : GPa
 output     inv_length unit                     : 1/A
 output      frequency unit                     : cm-1
 output force constant unit                     : eV/A**2
 output         volume unit                     : A**3
 output   IR intensity unit                     : (D/A)**2/amu
 output         dipole unit                     : D
 output         efield unit                     : eV/A/e
 output        entropy unit                     : J/mol/K
  
 wavefunctions paging                           : none
 random number generator seed                   : randomised (110001839)
 data distribution                              : optimal for this architecture
 optimization strategy                          : maximize speed(+++)

 *********************** Exchange-Correlation Parameters ***********************
  
 using functional                               : RSCAN
 relativistic treatment                         : Koelling-Harmon
 DFT+D: Semi-empirical dispersion correction    : off

 ************************* Pseudopotential Parameters **************************
  
 pseudopotential representation                 : reciprocal space
 <beta|phi> representation                      : reciprocal space
 spin-orbit coupling                            : off

 **************************** Basis Set Parameters *****************************
  
 basis set accuracy                             : EXTREME
 plane wave basis set cut-off                   :   783.6879   eV
 size of standard grid                          :     1.7500
 size of   fine   grid                          :     4.0000
 size of   fine   gmax                          :    57.3681   1/A
 finite basis set correction                    : automatic
 number of sample energies                      :          3
           sample  spacing                      :     5.0000   eV

 **************************** Electronic Parameters ****************************
  
 number of  electrons                           :  9.000    
 net charge of system                           :  0.000    
 treating system as non-spin-polarized
 number of bands                                :          9

 ********************* Electronic Minimization Parameters **********************
  
 Method: Treating system as metallic with density mixing treatment of electrons,
         and number of  SD  steps               :          1
         and number of  CG  steps               :          4
  
 total energy / atom convergence tol.           : 0.1000E-04   eV
 eigen-energy convergence tolerance             : 0.1000E-05   eV
 max force / atom convergence tol.              : ignored
 convergence tolerance window                   :          3   cycles
 max. number of SCF cycles                      :         30
 number of fixed-spin iterations                :         10
 smearing scheme                                : Gaussian
 smearing width                                 : 0.2000       eV
 Fermi energy convergence tolerance             : 0.2721E-13   eV
 periodic dipole correction                     : NONE

 ************************** Density Mixing Parameters **************************
  
 density-mixing scheme                          : Broyden
 max. length of mixing history                  :         20
 charge density mixing amplitude                : 0.8000    

 *********************** Population Analysis Parameters ************************
  
 Population analysis with cutoff                :  3.000       A
 Population analysis output                     : summary and pdos components

 ********************** Geometry Optimization Parameters ***********************
  
 optimization method                            : LBFGS
 max. no. of LBFGS updates                      : unbounded
 variable cell method                           : fixed basis quality
 max. number of steps                           :         30
 estimated bulk modulus                         :  500.0       GPa
 estimated <frequency>                          :  1668.       cm-1
 geom line minimiser                            : on
 with line minimiser tolerance                  :     0.4000
 total energy convergence tolerance             : 0.2000E-04   eV/atom
        max ionic |force| tolerance             : 0.5000E-01   eV/A
 max ionic |displacement| tolerance             : 0.1000E-02   A
   max |stress component| tolerance             : 0.1000       GPa
 convergence tolerance window                   :          2   steps
 backup results every                           :          5   steps
 write geom trajectory file                     : on

 *******************************************************************************
  
 
                           -------------------------------
                                      Unit Cell
                           -------------------------------
        Real Lattice(A)                      Reciprocal Lattice(1/A)
    -2.1107000     2.1107000     2.1107000        0.000000000   1.488412685   1.488412685
     2.1107000    -2.1107000     2.1107000        1.488412685   0.000000000   1.488412685
     2.1107000     2.1107000    -2.1107000        1.488412685   1.488412685   0.000000000
 
                       Lattice parameters(A)       Cell Angles
                    a =      3.655840          alpha =  109.471221
                    b =      3.655840          beta  =  109.471221
                    c =      3.655840          gamma =  109.471221
 
                       Current cell volume =            37.613134       A**3
                                   density =             0.611217   AMU/A**3
                                           =             1.014949     g/cm^3
 
                           -------------------------------
                                     Cell Contents
                           -------------------------------
                         Total number of ions in cell =    1
                      Total number of species in cell =    1
                        Max number of any one species =    1
 
            xxxxxxxxxxxxxxxxxxxxxxxxxxxxxxxxxxxxxxxxxxxxxxxxxxxxxxxxxxxx
            x  Element    Atom        Fractional coordinates of atoms  x
            x            Number           u          v          w      x
            x----------------------------------------------------------x
            x  Na           1         0.000000   0.000000   0.000000   x 
            xxxxxxxxxxxxxxxxxxxxxxxxxxxxxxxxxxxxxxxxxxxxxxxxxxxxxxxxxxxx
 
 
                         No user defined ionic velocities
 
                           -------------------------------
                                   Details of Species
                           -------------------------------
 
                               Mass of species in AMU
                                    Na   22.9897700
 
                          Electric Quadrupole Moment (Barn)
                                    Na    0.1040000 Isotope 23
 
                          Files used for pseudopotentials:
                                    Na 2|1.3|14|16|18|20U:30:21(qc=7)
 
                           -------------------------------
                              k-Points For BZ Sampling
                           -------------------------------
                       MP grid size for SCF calculation is  4  4  4
                            with an offset of   0.000  0.000  0.000
                       Number of kpoints used =             6
 
                           -------------------------------
                               Symmetry and Constraints
                           -------------------------------
 
                      Maximum deviation from symmetry =  0.00000         ANG
 
                      Number of symmetry operations   =          48
                      Number of ionic constraints     =           3
                      Point group of crystal =    32: Oh, m-3m, 4/m -3 2/m
                      Space group of crystal =   229: Im-3m, -I 4 2 3
 
             Set iprint > 1 for details on symmetry rotations/translations
 
                         Centre of mass is constrained
             Set iprint > 1 for details of linear ionic constraints
 
                         Number of cell constraints= 5
                         Cell constraints are:  1 1 1 0 0 0
 
                         External pressure/stress (GPa)
                          0.00000   0.00000   0.00000
                                    0.00000   0.00000
                                              0.00000
  
+---------------- MEMORY AND SCRATCH DISK ESTIMATES PER PROCESS --------------+
|                                                     Memory          Disk    |
| Baseline code, static data and system overhead       46.0 MB         0.0 MB |
| BLAS internal memory storage                          0.0 MB         0.0 MB |
| Model and support data                              336.9 MB         0.0 MB |
| Electronic energy minimisation requirements          29.9 MB         0.0 MB |
| Force calculation requirements                       55.3 MB         0.0 MB |
|                                               ----------------------------- |
| Approx. total storage required per process          438.2 MB         0.0 MB |
|                                                                             |
| Requirements will fluctuate during execution and may exceed these estimates |
+-----------------------------------------------------------------------------+
Calculating finite basis set correction with  3 cut-off energies.
Calculating total energy with cut-off of  773.688 eV.
------------------------------------------------------------------------ <-- SCF
SCF loop      Energy           Fermi           Energy gain       Timer   <-- SCF
                               energy          per atom          (sec)   <-- SCF
------------------------------------------------------------------------ <-- SCF
Initial  -1.29077586E+003  0.00000000E+000                         7.89  <-- SCF
      1  -1.29782412E+003  1.60200601E+000   7.04826563E+000       8.68  <-- SCF
      2  -1.30885501E+003  3.20598478E-001   1.10308840E+001       9.11  <-- SCF
      3  -1.30895687E+003  3.00704165E-001   1.01867228E-001       9.56  <-- SCF
      4  -1.30896792E+003  2.78837774E-001   1.10470604E-002      12.48  <-- SCF
      5  -1.30896864E+003  2.74926583E-001   7.20213270E-004      15.38  <-- SCF
      6  -1.30896859E+003  2.68052164E-001  -5.44216368E-005      18.24  <-- SCF
      7  -1.30896850E+003  2.66290717E-001  -8.74896583E-005      21.03  <-- SCF
      8  -1.30896850E+003  2.65950561E-001   1.49992614E-006      23.71  <-- SCF
      9  -1.30896850E+003  2.65785337E-001   6.41301294E-007      26.35  <-- SCF
------------------------------------------------------------------------ <-- SCF
 
Final energy, E             =  -1308.934797142     eV
Final free energy (E-TS)    =  -1308.968502437     eV
(energies not corrected for finite basis set)
 
NB est. 0K energy (E-0.5TS)      =  -1308.951649790     eV
 
Calculating total energy with cut-off of  778.688 eV.
------------------------------------------------------------------------ <-- SCF
SCF loop      Energy           Fermi           Energy gain       Timer   <-- SCF
                               energy          per atom          (sec)   <-- SCF
------------------------------------------------------------------------ <-- SCF
Initial  -1.30893480E+003  0.00000000E+000                        30.80  <-- SCF
      1  -1.30896854E+003  2.65747906E-001   3.37435940E-002      31.31  <-- SCF
      2  -1.30896854E+003  2.65747906E-001   3.32101230E-008      34.00  <-- SCF
      3  -1.30896854E+003  2.65774925E-001   3.69289886E-008      36.71  <-- SCF
      4  -1.30896854E+003  2.65795461E-001   7.81978781E-009      39.46  <-- SCF
------------------------------------------------------------------------ <-- SCF
 
Final energy, E             =  -1308.934835565     eV
Final free energy (E-TS)    =  -1308.968540861     eV
(energies not corrected for finite basis set)
 
NB est. 0K energy (E-0.5TS)      =  -1308.951688213     eV
 
Calculating total energy with cut-off of  783.688 eV.
------------------------------------------------------------------------ <-- SCF
SCF loop      Energy           Fermi           Energy gain       Timer   <-- SCF
                               energy          per atom          (sec)   <-- SCF
------------------------------------------------------------------------ <-- SCF
Initial  -1.30893484E+003  0.00000000E+000                        44.03  <-- SCF
      1  -1.30896858E+003  2.65784839E-001   3.37470023E-002      44.55  <-- SCF
      2  -1.30896858E+003  2.65784838E-001   3.58932205E-009      47.32  <-- SCF
      3  -1.30896858E+003  2.65811301E-001   3.25635655E-008      50.06  <-- SCF
      4  -1.30896858E+003  2.65831431E-001   4.54678395E-009      52.85  <-- SCF
------------------------------------------------------------------------ <-- SCF
 
Final energy, E             =  -1308.934877333     eV
Final free energy (E-TS)    =  -1308.968582628     eV
(energies not corrected for finite basis set)
 
NB est. 0K energy (E-0.5TS)      =  -1308.951729980     eV
 
 For future reference: finite basis dEtot/dlog(Ecut) =      -0.004997eV
 Total energy corrected for finite basis set =   -1308.968574 eV
 
+---------------- MEMORY AND SCRATCH DISK ESTIMATES PER PROCESS --------------+
|                                                     Memory          Disk    |
| Model and support data                              331.2 MB         0.0 MB |
| Electronic energy minimisation requirements          29.9 MB         0.0 MB |
| Geometry minimisation requirements                   37.2 MB         0.0 MB |
|                                               ----------------------------- |
| Approx. total storage required per process          398.4 MB         0.0 MB |
|                                                                             |
| Requirements will fluctuate during execution and may exceed these estimates |
+-----------------------------------------------------------------------------+
 
 
 *********** Symmetrised Stress Tensor ***********
 *                                               *
 *          Cartesian components (GPa)           *
 * --------------------------------------------- *
 *             x             y             z     *
 *                                               *
 *  x      0.530367     -0.000000     -0.000000  *
 *  y     -0.000000      0.530367      0.000000  *
 *  z     -0.000000      0.000000      0.530367  *
 *                                               *
 *  Pressure:   -0.5304                          *
 *                                               *
 *************************************************
 LBFGS: finished iteration     0 with enthalpy= -1.30896857E+003 eV
  
 +-----------+-----------------+-----------------+------------+-----+ <-- LBFGS
 | Parameter |      value      |    tolerance    |    units   | OK? | <-- LBFGS
 +-----------+-----------------+-----------------+------------+-----+ <-- LBFGS
 |  dE/ion   |   0.000000E+000 |   2.000000E-005 |         eV | No  | <-- LBFGS
 |   Smax    |   5.303667E-001 |   1.000000E-001 |        GPa | No  | <-- LBFGS
 +-----------+-----------------+-----------------+------------+-----+ <-- LBFGS
  

================================================================================
 Starting LBFGS iteration          1 ...
================================================================================
  
 +------------+-------------+-------------+-----------------+ <-- min LBFGS
 |    Step    |   lambda    |   F.delta'  |    enthalpy     | <-- min LBFGS
 +------------+-------------+-------------+-----------------+ <-- min LBFGS
 |  previous  |    0.000000 |    0.007925 |    -1308.968574 | <-- min LBFGS
 +------------+-------------+-------------+-----------------+ <-- min LBFGS
  

--------------------------------------------------------------------------------
 LBFGS: starting iteration         1 with trial guess (lambda=  1.000000)
--------------------------------------------------------------------------------
 
                           -------------------------------
                                      Unit Cell
                           -------------------------------
        Real Lattice(A)              Reciprocal Lattice(1/A)
    -2.1099537     2.1099537     2.1099537        0.000000000   1.488939141   1.488939141
     2.1099537    -2.1099537     2.1099537        1.488939141   0.000000000   1.488939141
     2.1099537     2.1099537    -2.1099537        1.488939141   1.488939141   0.000000000
 
                       Lattice parameters(A)       Cell Angles
                    a =      3.654547          alpha =  109.471221
                    b =      3.654547          beta  =  109.471221
                    c =      3.654547          gamma =  109.471221
 
                Current cell volume =            37.573251 A**3
                            density =             0.611865 amu/A**3
                                    =             1.016026 g/cm^3
 
------------------------------------------------------------------------ <-- SCF
SCF loop      Energy           Fermi           Energy gain       Timer   <-- SCF
                               energy          per atom          (sec)   <-- SCF
------------------------------------------------------------------------ <-- SCF
Initial  -1.30893470E+003  0.00000000E+000                        64.81  <-- SCF
      1  -1.30896895E+003  2.69992748E-001   3.42477061E-002      65.40  <-- SCF
      2  -1.30896895E+003  2.69992747E-001   1.75409515E-006      68.13  <-- SCF
      3  -1.30896879E+003  2.69844776E-001  -1.60302056E-004      71.05  <-- SCF
      4  -1.30896875E+003  2.68596357E-001  -3.72393087E-005      73.98  <-- SCF
      5  -1.30896870E+003  2.68960364E-001  -4.65336882E-005      76.81  <-- SCF
      6  -1.30896870E+003  2.68966327E-001  -5.58324807E-008      79.54  <-- SCF
      7  -1.30896870E+003  2.68942860E-001   3.03986421E-008      82.29  <-- SCF
------------------------------------------------------------------------ <-- SCF
 
Final energy, E             =  -1308.934998127     eV
Final free energy (E-TS)    =  -1308.968703423     eV
(energies not corrected for finite basis set)
 
NB est. 0K energy (E-0.5TS)      =  -1308.951850775     eV
 
 
 *********** Symmetrised Stress Tensor ***********
 *                                               *
 *          Cartesian components (GPa)           *
 * --------------------------------------------- *
 *             x             y             z     *
 *                                               *
 *  x      0.519963      0.000000      0.000000  *
 *  y      0.000000      0.519963     -0.000000  *
 *  z      0.000000     -0.000000      0.519963  *
 *                                               *
 *  Pressure:   -0.5200                          *
 *                                               *
 *************************************************
  
 +------------+-------------+-------------+-----------------+ <-- min LBFGS
 |    Step    |   lambda    |   F.delta'  |    enthalpy     | <-- min LBFGS
 +------------+-------------+-------------+-----------------+ <-- min LBFGS
 |  previous  |    0.000000 |    0.007925 |    -1308.968574 | <-- min LBFGS
 | trial step |    1.000000 |    0.007764 |    -1308.968701 | <-- min LBFGS
 +------------+-------------+-------------+-----------------+ <-- min LBFGS
  

--------------------------------------------------------------------------------
 LBFGS: improving iteration         1 with line minimization (lambda= 49.237844)
--------------------------------------------------------------------------------
 
                           -------------------------------
                                      Unit Cell
                           -------------------------------
        Real Lattice(A)              Reciprocal Lattice(1/A)
    -2.0739540     2.0739540     2.0739540        0.000000000   1.514784183   1.514784183
     2.0739540    -2.0739540     2.0739540        1.514784183   0.000000000   1.514784183
     2.0739540     2.0739540    -2.0739540        1.514784183   1.514784183   0.000000000
 
                       Lattice parameters(A)       Cell Angles
                    a =      3.592194          alpha =  109.471221
                    b =      3.592194          beta  =  109.471221
                    c =      3.592194          gamma =  109.471221
 
                Current cell volume =            35.682668 A**3
                            density =             0.644284 amu/A**3
                                    =             1.069859 g/cm^3
 
------------------------------------------------------------------------ <-- SCF
SCF loop      Energy           Fermi           Energy gain       Timer   <-- SCF
                               energy          per atom          (sec)   <-- SCF
------------------------------------------------------------------------ <-- SCF
Initial  -1.30823452E+003  0.00000000E+000                        94.00  <-- SCF
      1  -1.30954214E+003  4.82837778E-001   1.30761243E+000      94.57  <-- SCF
      2  -1.30954651E+003  4.82834411E-001   4.37097229E-003      97.43  <-- SCF
      3  -1.30805295E+003  1.69789670E+000  -1.49355307E+000     100.26  <-- SCF
      4  -1.30800500E+003  1.69135283E+000  -4.79526715E-002     103.07  <-- SCF
      5  -1.30897123E+003  4.33399245E-001   9.66232419E-001     106.00  <-- SCF
      6  -1.30897192E+003  4.30637525E-001   6.83820303E-004     108.92  <-- SCF
      7  -1.30897221E+003  4.27666286E-001   2.91951613E-004     111.77  <-- SCF
      8  -1.30897226E+003  4.26908983E-001   4.80368562E-005     114.55  <-- SCF
      9  -1.30897229E+003  4.25261733E-001   3.33405712E-005     117.39  <-- SCF
     10  -1.30897229E+003  4.25094305E-001   2.43673668E-007     120.10  <-- SCF
     11  -1.30897229E+003  4.25148282E-001   6.86004440E-008     122.81  <-- SCF
------------------------------------------------------------------------ <-- SCF
 
Final energy, E             =  -1308.938585178     eV
Final free energy (E-TS)    =  -1308.972290473     eV
(energies not corrected for finite basis set)
 
NB est. 0K energy (E-0.5TS)      =  -1308.955437825     eV
 
 
 *********** Symmetrised Stress Tensor ***********
 *                                               *
 *          Cartesian components (GPa)           *
 * --------------------------------------------- *
 *             x             y             z     *
 *                                               *
 *  x      0.076778      0.000000      0.000000  *
 *  y      0.000000      0.076778     -0.000000  *
 *  z      0.000000     -0.000000      0.076778  *
 *                                               *
 *  Pressure:   -0.0768                          *
 *                                               *
 *************************************************
  
 +------------+-------------+-------------+-----------------+ <-- min LBFGS
 |    Step    |   lambda    |   F.delta'  |    enthalpy     | <-- min LBFGS
 +------------+-------------+-------------+-----------------+ <-- min LBFGS
 |  previous  |    0.000000 |    0.007925 |    -1308.968574 | <-- min LBFGS
 | trial step |    1.000000 |    0.007764 |    -1308.968701 | <-- min LBFGS
 |  line step |   49.237844 |    0.001108 |    -1308.972287 | <-- min LBFGS
 +------------+-------------+-------------+-----------------+ <-- min LBFGS
  
 LBFGS: finished iteration     1 with enthalpy= -1.30897229E+003 eV
  
 +-----------+-----------------+-----------------+------------+-----+ <-- LBFGS
 | Parameter |      value      |    tolerance    |    units   | OK? | <-- LBFGS
 +-----------+-----------------+-----------------+------------+-----+ <-- LBFGS
 |  dE/ion   |   3.713340E-003 |   2.000000E-005 |         eV | No  | <-- LBFGS
 |   Smax    |   7.677823E-002 |   1.000000E-001 |        GPa | Yes | <-- LBFGS
 +-----------+-----------------+-----------------+------------+-----+ <-- LBFGS
  

================================================================================
 Starting LBFGS iteration          2 ...
================================================================================
  
 +------------+-------------+-------------+-----------------+ <-- min LBFGS
 |    Step    |   lambda    |   F.delta'  |    enthalpy     | <-- min LBFGS
 +------------+-------------+-------------+-----------------+ <-- min LBFGS
 |  previous  |    0.000000 |    0.001108 |    -1308.972287 | <-- min LBFGS
 +------------+-------------+-------------+-----------------+ <-- min LBFGS
  

--------------------------------------------------------------------------------
 LBFGS: starting iteration         2 with trial guess (lambda=  1.000000)
--------------------------------------------------------------------------------
 
                           -------------------------------
                                      Unit Cell
                           -------------------------------
        Real Lattice(A)              Reciprocal Lattice(1/A)
    -2.0679836     2.0679836     2.0679836        0.000000000   1.519157445   1.519157445
     2.0679836    -2.0679836     2.0679836        1.519157445   0.000000000   1.519157445
     2.0679836     2.0679836    -2.0679836        1.519157445   1.519157445   0.000000000
 
                       Lattice parameters(A)       Cell Angles
                    a =      3.581853          alpha =  109.471221
                    b =      3.581853          beta  =  109.471221
                    c =      3.581853          gamma =  109.471221
 
                Current cell volume =            35.375391 A**3
                            density =             0.649880 amu/A**3
                                    =             1.079152 g/cm^3
 
------------------------------------------------------------------------ <-- SCF
SCF loop      Energy           Fermi           Energy gain       Timer   <-- SCF
                               energy          per atom          (sec)   <-- SCF
------------------------------------------------------------------------ <-- SCF
Initial  -1.30891879E+003  0.00000000E+000                       134.55  <-- SCF
      1  -1.30898841E+003  4.61514385E-001   6.96166433E-002     135.12  <-- SCF
      2  -1.30898854E+003  4.61514313E-001   1.32823629E-004     137.99  <-- SCF
      3  -1.30894393E+003  4.96872840E-001  -4.46106645E-002     140.94  <-- SCF
      4  -1.30897024E+003  4.55747351E-001   2.63028564E-002     143.91  <-- SCF
      5  -1.30897236E+003  4.52575911E-001   2.12289383E-003     146.76  <-- SCF
      6  -1.30897235E+003  4.52410671E-001  -5.97262880E-006     149.54  <-- SCF
      7  -1.30897235E+003  4.52059547E-001   9.74784965E-007     152.27  <-- SCF
------------------------------------------------------------------------ <-- SCF
 
Final energy, E             =  -1308.938649186     eV
Final free energy (E-TS)    =  -1308.972354482     eV
(energies not corrected for finite basis set)
 
NB est. 0K energy (E-0.5TS)      =  -1308.955501834     eV
 
 
 *********** Symmetrised Stress Tensor ***********
 *                                               *
 *          Cartesian components (GPa)           *
 * --------------------------------------------- *
 *             x             y             z     *
 *                                               *
 *  x      0.010650      0.000000      0.000000  *
 *  y      0.000000      0.010650     -0.000000  *
 *  z      0.000000     -0.000000      0.010650  *
 *                                               *
 *  Pressure:   -0.0106                          *
 *                                               *
 *************************************************
  
 +------------+-------------+-------------+-----------------+ <-- min LBFGS
 |    Step    |   lambda    |   F.delta'  |    enthalpy     | <-- min LBFGS
 +------------+-------------+-------------+-----------------+ <-- min LBFGS
 |  previous  |    0.000000 |    0.001108 |    -1308.972287 | <-- min LBFGS
 | trial step |    1.000000 |    0.000153 |    -1308.972353 | <-- min LBFGS
 +------------+-------------+-------------+-----------------+ <-- min LBFGS
  
 LBFGS: finished iteration     2 with enthalpy= -1.30897235E+003 eV
  
 +-----------+-----------------+-----------------+------------+-----+ <-- LBFGS
 | Parameter |      value      |    tolerance    |    units   | OK? | <-- LBFGS
 +-----------+-----------------+-----------------+------------+-----+ <-- LBFGS
 |  dE/ion   |   6.629441E-005 |   2.000000E-005 |         eV | No  | <-- LBFGS
 |   Smax    |   1.064955E-002 |   1.000000E-001 |        GPa | Yes | <-- LBFGS
 +-----------+-----------------+-----------------+------------+-----+ <-- LBFGS
  

================================================================================
 Starting LBFGS iteration          3 ...
================================================================================
  
 +------------+-------------+-------------+-----------------+ <-- min LBFGS
 |    Step    |   lambda    |   F.delta'  |    enthalpy     | <-- min LBFGS
 +------------+-------------+-------------+-----------------+ <-- min LBFGS
 |  previous  |    0.000000 |    0.000153 |    -1308.972353 | <-- min LBFGS
 +------------+-------------+-------------+-----------------+ <-- min LBFGS
  

--------------------------------------------------------------------------------
 LBFGS: starting iteration         3 with trial guess (lambda=  1.000000)
--------------------------------------------------------------------------------
 
                           -------------------------------
                                      Unit Cell
                           -------------------------------
        Real Lattice(A)              Reciprocal Lattice(1/A)
    -2.0670285     2.0670285     2.0670285        0.000000000   1.519859375   1.519859375
     2.0670285    -2.0670285     2.0670285        1.519859375   0.000000000   1.519859375
     2.0670285     2.0670285    -2.0670285        1.519859375   1.519859375   0.000000000
 
                       Lattice parameters(A)       Cell Angles
                    a =      3.580198          alpha =  109.471221
                    b =      3.580198          beta  =  109.471221
                    c =      3.580198          gamma =  109.471221
 
                Current cell volume =            35.326401 A**3
                            density =             0.650782 amu/A**3
                                    =             1.080648 g/cm^3
 
------------------------------------------------------------------------ <-- SCF
SCF loop      Energy           Fermi           Energy gain       Timer   <-- SCF
                               energy          per atom          (sec)   <-- SCF
------------------------------------------------------------------------ <-- SCF
Initial  -1.30893814E+003  0.00000000E+000                       164.02  <-- SCF
      1  -1.30897275E+003  4.58044842E-001   3.46057039E-002     164.59  <-- SCF
      2  -1.30897275E+003  4.58044840E-001   3.10374153E-006     167.34  <-- SCF
      3  -1.30897249E+003  4.57364450E-001  -2.61080432E-004     170.24  <-- SCF
      4  -1.30897242E+003  4.56363152E-001  -6.55931468E-005     173.16  <-- SCF
      5  -1.30897234E+003  4.56642979E-001  -7.86819266E-005     175.96  <-- SCF
      6  -1.30897234E+003  4.56624099E-001  -9.32937577E-008     178.66  <-- SCF
      7  -1.30897234E+003  4.56610963E-001   4.46874849E-008     181.40  <-- SCF
------------------------------------------------------------------------ <-- SCF
 
Final energy, E             =  -1308.938639081     eV
Final free energy (E-TS)    =  -1308.972344376     eV
(energies not corrected for finite basis set)
 
NB est. 0K energy (E-0.5TS)      =  -1308.955491729     eV
 
 
 *********** Symmetrised Stress Tensor ***********
 *                                               *
 *          Cartesian components (GPa)           *
 * --------------------------------------------- *
 *             x             y             z     *
 *                                               *
 *  x     -0.015291     -0.000000     -0.000000  *
 *  y     -0.000000     -0.015291      0.000000  *
 *  z     -0.000000      0.000000     -0.015291  *
 *                                               *
 *  Pressure:    0.0153                          *
 *                                               *
 *************************************************
  
 +------------+-------------+-------------+-----------------+ <-- min LBFGS
 |    Step    |   lambda    |   F.delta'  |    enthalpy     | <-- min LBFGS
 +------------+-------------+-------------+-----------------+ <-- min LBFGS
 |  previous  |    0.000000 |    0.000153 |    -1308.972353 | <-- min LBFGS
 | trial step |    1.000000 |   -0.000219 |    -1308.972348 | <-- min LBFGS
 +------------+-------------+-------------+-----------------+ <-- min LBFGS
  
 LBFGS: finished iteration     3 with enthalpy= -1.30897235E+003 eV
  
 +-----------+-----------------+-----------------+------------+-----+ <-- LBFGS
 | Parameter |      value      |    tolerance    |    units   | OK? | <-- LBFGS
 +-----------+-----------------+-----------------+------------+-----+ <-- LBFGS
 |  dE/ion   |   4.773486E-006 |   2.000000E-005 |         eV | Yes | <-- LBFGS
 |   Smax    |   1.529062E-002 |   1.000000E-001 |        GPa | Yes | <-- LBFGS
 +-----------+-----------------+-----------------+------------+-----+ <-- LBFGS
  
 LBFGS: Geometry optimization completed successfully.

================================================================================
 LBFGS: Final Configuration:
================================================================================
 
                           -------------------------------
                                      Unit Cell
                           -------------------------------
        Real Lattice(A)              Reciprocal Lattice(1/A)
    -2.0670285     2.0670285     2.0670285        0.000000000   1.519859375   1.519859375
     2.0670285    -2.0670285     2.0670285        1.519859375   0.000000000   1.519859375
     2.0670285     2.0670285    -2.0670285        1.519859375   1.519859375   0.000000000
 
                       Lattice parameters(A)       Cell Angles
                    a =      3.580198          alpha =  109.471221
                    b =      3.580198          beta  =  109.471221
                    c =      3.580198          gamma =  109.471221
 
                Current cell volume =            35.326401 A**3
                            density =             0.650782 amu/A**3
                                    =             1.080648 g/cm^3
 
 LBFGS: Final Enthalpy     = -1.30897235E+003 eV
 LBFGS: Final bulk modulus =       7.68989 GPa
 
 ******************************** Symmetrised Forces ********************************
 *                                                                                  *
 *                           Cartesian components (eV/A)                            *
 * -------------------------------------------------------------------------------- *
 *                         x                    y                    z              *
 *                                                                                  *
 * Na              1      0.00000              0.00000              0.00000         *
 *                                                                                  *
 ************************************************************************************
 
 *********** Symmetrised Stress Tensor ***********
 *                                               *
 *          Cartesian components (GPa)           *
 * --------------------------------------------- *
 *             x             y             z     *
 *                                               *
 *  x     -0.015291     -0.000000     -0.000000  *
 *  y     -0.000000     -0.015291      0.000000  *
 *  z     -0.000000      0.000000     -0.015291  *
 *                                               *
 *  Pressure:    0.0153                          *
 *                                               *
 *************************************************
 
 Pseudo atomic calculation performed for Na 2s2 2p6 3s1
 
 Converged in 25 iterations to a total energy of -1307.4564 eV
Charge spilling parameter for spin component 1 = 0.01%
 
            Orbital Populations       
     Ion    Atom   Orbital             Charge
  -------------------------------------------
     Na     1      S                    2.000
     Na     1      Px                   2.001
     Na     1      Py                   2.001
     Na     1      Pz                   2.001
     Na     1      S                    0.232
     Na     1      Px                   0.501
     Na     1      Py                   0.201
     Na     1      Pz                   0.062
  -------------------------------------------
                           Total:       9.000
  -------------------------------------------
 
     Atomic Populations (Mulliken)
     -----------------------------
Species          Ion     s      p      d      f     Total  Charge (e)
=====================================================================
  Na              1     2.23   6.77   0.00   0.00   9.00     0.00
=====================================================================
 
                 Bond                   Population      Length (A)
======================================================================
======================================================================
 

Writing analysis data to Na.castep_bin

Writing model to Na.check
 
 A BibTeX formatted list of references used in this run has been written to 
 Na.bib
 
Initialisation time =      4.91 s
Calculation time    =    189.12 s
Finalisation time   =      1.67 s
Total time          =    195.71 s
Peak Memory Use     = 888468 kB
