 +-------------------------------------------------+
 |                                                 |
 |      CCC   AA    SSS  TTTTT  EEEEE  PPPP        |
 |     C     A  A  S       T    E      P   P       |
 |     C     AAAA   SS     T    EEE    PPPP        |
 |     C     A  A     S    T    E      P           |
 |      CCC  A  A  SSS     T    EEEEE  P           |
 |                                                 |
 +-------------------------------------------------+
 |                                                 |
 | Welcome to Academic Release CASTEP version 20.1 |          
 | Ab Initio Total Energy Program                  |
 |                                                 |
 | Authors:                                        |
 | M. Segall, M. Probert, C. Pickard, P. Hasnip,   |
 | S. Clark, K. Refson, J. R. Yates, M. Payne      |
 |                                                 |
 | Contributors:                                   |
 | P. Lindan, P. Haynes, J. White, V. Milman,      |
 | N. Govind, M. Gibson, P. Tulip, V. Cocula,      |
 | B. Montanari, D. Quigley, M. Glover,            |
 | L. Bernasconi, A. Perlov, M. Plummer,           |
 | E. McNellis, J. Meyer, J. Gale, D. Jochym       |
 | J. Aarons, B. Walker, R. Gillen, D. Jones       |
 | T. Green, I. J. Bush, C. J. Armstrong,          |
 | E. J. Higgins, E. L. Brown, M. S. McFly,        |
 | J. Wilkins, B-C. Shih, P. J. P. Byrne,          |
 | R. J. Maurer, J. C. Womack, A. Bartok-Partay    |
 |                                                 |
 | Copyright (c) 2000 - 2019                       |
 |                                                 |
 |     Distributed under the terms of an           |
 |     Agreement between the United Kingdom        |
 |     Car-Parrinello (UKCP) Consortium,           |
 |     Daresbury Laboratory and Accelrys, Inc.     |
 |                                                 |
 | Please cite                                     |
 |                                                 |
 |     "First principles methods using CASTEP"     |
 |                                                 |
 |         Zeitschrift fuer Kristallographie       |
 |           220(5-6) pp. 567-570 (2005)           |
 |                                                 |
 | S. J. Clark, M. D. Segall, C. J. Pickard,       |
 | P. J. Hasnip, M. J. Probert, K. Refson,         |
 | M. C. Payne                                     |
 |                                                 |
 |       in all publications arising from          |
 |              your use of CASTEP                 |
 |                                                 |
 +-------------------------------------------------+
 |                                                 |
 |              http://www.castep.org              |
 |                                                 |
 +-------------------------------------------------+
 
 
 
 Compiled for linux_x86_64_ifort17 on Mon, 15 Jul 2019 14:09:47 +0100
 from code version 5dacc5c3c63b+  Mon, 10 Jun 2019 22:27:09 +0100
 Compiler: Intel Fortran 17.0.1.132; Optimisation: fast
 MATHLIBS: Intel MKL(2017.0.1) (LAPACK version 3.6.0)
 FFT Lib : mkl
 Fundamental constants values: CODATA 2014
 
 Run started: Mon, 15 Jul 2019 15:32:46 +0100
 Info: number of up-spin electrons is not equal to the
       number of down-spins but spin_polarized=false
     - consider setting spin_polarized=true.
 
 Atomic calculation performed for Ag:
 1s2 2s2 2p6 3s2 3p6 3d10 4s2 4p6 4d10 5s1
 
 Converged in 46 iterations to an ae energy of -144656.542 eV
 
   ============================================================                
   | Pseudopotential Report - Date of generation 15-07-2019   |                
   ------------------------------------------------------------                
   | Element: Ag Ionic charge: 19.00 Level of theory: PBE     |                
   | Atomic Solver: Koelling-Harmon                           |                
   |                                                          |                
   |               Reference Electronic Structure             |                
   |         Orbital         Occupation         Energy        |                
   |            4s              2.000           -3.493        |                
   |            4p              6.000           -2.152        |                
   |            4d             10.000           -0.274        |                
   |            5s              1.000           -0.162        |                
   |                                                          |                
   |                 Pseudopotential Definition               |                
   |        Beta     l      e      Rc     scheme   norm       |                
   |          1      0   -3.493   1.504     qc      0         |                
   |          2      0   -0.162   1.504     qc      0         |                
   |          3      0    0.250   1.504     qc      0         |                
   |          4      1   -2.152   1.504     qc      0         |                
   |          5      1    0.250   1.504     qc      0         |                
   |          6      2   -0.274   1.504     qc      0         |                
   |          7      2    0.250   1.504     qc      0         |                
   |         loc     3    0.000   1.504     pn      0         |                
   |                                                          |                
   | Augmentation charge Rinner = 0.798                       |                
   | Partial core correction Rc = 0.798                       |                
   ------------------------------------------------------------                
   | "3|1.5|1.5|0.8|15|17|19|40U:50:41:42(qc=7)"              |                
   ------------------------------------------------------------                
   |      Author: Chris J. Pickard, Cambridge University      |                
   ============================================================                
 
 Pseudo atomic calculation performed for Ag 4s2 4p6 4d10 5s1
 
 Converged in 37 iterations to a total energy of -4322.0821 eV
 Calculation not parallelised.

 ************************************ Title ************************************
 

 ***************************** General Parameters ******************************
  
 output verbosity                               : normal  (1)
 write checkpoint data to                       : Ag.check
 type of calculation                            : geometry optimization
 stress calculation                             : off
 density difference calculation                 : off
 electron localisation func (ELF) calculation   : off
 Hirshfeld analysis                             : off
 molecular orbital projected DOS                : off
 deltaSCF calculation                           : off
 unlimited duration calculation
 timing information                             : on
 memory usage estimate                          : on
 write extra output files                       : on
 write final potential to formatted file        : off
 write final density to formatted file          : off
 write BibTeX reference list                    : on
 write OTFG pseudopotential files               : on
 write electrostatic potential file             : on
 write bands file                               : on
 checkpoint writing                             : both castep_bin and check files
  
 output         length unit                     : A
 output           mass unit                     : amu
 output           time unit                     : ps
 output         charge unit                     : e
 output           spin unit                     : hbar/2
 output         energy unit                     : eV
 output          force unit                     : eV/A
 output       velocity unit                     : A/ps
 output       pressure unit                     : GPa
 output     inv_length unit                     : 1/A
 output      frequency unit                     : cm-1
 output force constant unit                     : eV/A**2
 output         volume unit                     : A**3
 output   IR intensity unit                     : (D/A)**2/amu
 output         dipole unit                     : D
 output         efield unit                     : eV/A/e
 output        entropy unit                     : J/mol/K
  
 wavefunctions paging                           : none
 random number generator seed                   : randomised (153246212)
 data distribution                              : optimal for this architecture
 optimization strategy                          : maximize speed(+++)

 *********************** Exchange-Correlation Parameters ***********************
  
 using functional                               : Perdew Burke Ernzerhof
 relativistic treatment                         : Koelling-Harmon
 DFT+D: Semi-empirical dispersion correction    : off

 ************************* Pseudopotential Parameters **************************
  
 pseudopotential representation                 : reciprocal space
 <beta|phi> representation                      : reciprocal space
 spin-orbit coupling                            : off

 **************************** Basis Set Parameters *****************************
  
 basis set accuracy                             : EXTREME
 plane wave basis set cut-off                   :   827.2261   eV
 size of standard grid                          :     1.7500
 size of   fine   grid                          :     4.0000
 size of   fine   gmax                          :    58.9401   1/A
 finite basis set correction                    : automatic
 number of sample energies                      :          3
           sample  spacing                      :     5.0000   eV

 **************************** Electronic Parameters ****************************
  
 number of  electrons                           :  19.00    
 net charge of system                           :  0.000    
 treating system as non-spin-polarized
 number of bands                                :         14

 ********************* Electronic Minimization Parameters **********************
  
 Method: Treating system as metallic with density mixing treatment of electrons,
         and number of  SD  steps               :          1
         and number of  CG  steps               :          4
  
 total energy / atom convergence tol.           : 0.1000E-04   eV
 eigen-energy convergence tolerance             : 0.1000E-05   eV
 max force / atom convergence tol.              : ignored
 convergence tolerance window                   :          3   cycles
 max. number of SCF cycles                      :         30
 number of fixed-spin iterations                :         10
 smearing scheme                                : Gaussian
 smearing width                                 : 0.2000       eV
 Fermi energy convergence tolerance             : 0.2721E-13   eV
 periodic dipole correction                     : NONE

 ************************** Density Mixing Parameters **************************
  
 density-mixing scheme                          : Broyden
 max. length of mixing history                  :         20
 charge density mixing amplitude                : 0.8000    

 *********************** Population Analysis Parameters ************************
  
 Population analysis with cutoff                :  3.000       A
 Population analysis output                     : summary and pdos components

 ********************** Geometry Optimization Parameters ***********************
  
 optimization method                            : LBFGS
 max. no. of LBFGS updates                      : unbounded
 variable cell method                           : fixed basis quality
 max. number of steps                           :         30
 estimated bulk modulus                         :  500.0       GPa
 estimated <frequency>                          :  1668.       cm-1
 geom line minimiser                            : on
 with line minimiser tolerance                  :     0.4000
 total energy convergence tolerance             : 0.2000E-04   eV/atom
        max ionic |force| tolerance             : 0.5000E-01   eV/A
 max ionic |displacement| tolerance             : 0.1000E-02   A
   max |stress component| tolerance             : 0.1000       GPa
 convergence tolerance window                   :          2   steps
 backup results every                           :          5   steps
 write geom trajectory file                     : on

 *******************************************************************************
  
 
                           -------------------------------
                                      Unit Cell
                           -------------------------------
        Real Lattice(A)                      Reciprocal Lattice(1/A)
     2.0430000     2.0430000     0.0000000        1.537735024   1.537735024  -1.537735024
     2.0430000     0.0000000     2.0430000        1.537735024  -1.537735024   1.537735024
     0.0000000     2.0430000     2.0430000       -1.537735024   1.537735024   1.537735024
 
                       Lattice parameters(A)       Cell Angles
                    a =      2.889238          alpha =   60.000000
                    b =      2.889238          beta  =   60.000000
                    c =      2.889238          gamma =   60.000000
 
                       Current cell volume =            17.054347       A**3
                                   density =             6.324968   AMU/A**3
                                           =            10.502856     g/cm^3
 
                           -------------------------------
                                     Cell Contents
                           -------------------------------
                         Total number of ions in cell =    1
                      Total number of species in cell =    1
                        Max number of any one species =    1
 
            xxxxxxxxxxxxxxxxxxxxxxxxxxxxxxxxxxxxxxxxxxxxxxxxxxxxxxxxxxxx
            x  Element    Atom        Fractional coordinates of atoms  x
            x            Number           u          v          w      x
            x----------------------------------------------------------x
            x  Ag           1         0.000000   0.000000   0.000000   x 
            xxxxxxxxxxxxxxxxxxxxxxxxxxxxxxxxxxxxxxxxxxxxxxxxxxxxxxxxxxxx
 
 
                         No user defined ionic velocities
 
                           -------------------------------
                                   Details of Species
                           -------------------------------
 
                               Mass of species in AMU
                                    Ag  107.8682000
 
                          Electric Quadrupole Moment (Barn)
                                    Ag    1.0000000 No Isotope Defined
 
                          Files used for pseudopotentials:
                                    Ag 3|1.5|1.5|0.8|15|17|19|40U:50:41:42(qc=7)
 
                           -------------------------------
                              k-Points For BZ Sampling
                           -------------------------------
                       MP grid size for SCF calculation is  5  5  5
                            with an offset of   0.000  0.000  0.000
                       Number of kpoints used =            10
 
                           -------------------------------
                               Symmetry and Constraints
                           -------------------------------
 
                      Maximum deviation from symmetry =  0.00000         ANG
 
                      Number of symmetry operations   =          48
                      Number of ionic constraints     =           3
                      Point group of crystal =    32: Oh, m-3m, 4/m -3 2/m
                      Space group of crystal =   225: Fm-3m, -F 4 2 3
 
             Set iprint > 1 for details on symmetry rotations/translations
 
                         Centre of mass is constrained
             Set iprint > 1 for details of linear ionic constraints
 
                         Number of cell constraints= 5
                         Cell constraints are:  1 1 1 0 0 0
 
                         External pressure/stress (GPa)
                          0.00000   0.00000   0.00000
                                    0.00000   0.00000
                                              0.00000
  
+---------------- MEMORY AND SCRATCH DISK ESTIMATES PER PROCESS --------------+
|                                                     Memory          Disk    |
| Baseline code, static data and system overhead       46.0 MB         0.0 MB |
| BLAS internal memory storage                          0.0 MB         0.0 MB |
| Model and support data                              766.6 MB         0.0 MB |
| Electronic energy minimisation requirements          19.6 MB         0.0 MB |
| Force calculation requirements                       31.9 MB         0.0 MB |
|                                               ----------------------------- |
| Approx. total storage required per process          844.5 MB         0.0 MB |
|                                                                             |
| Requirements will fluctuate during execution and may exceed these estimates |
+-----------------------------------------------------------------------------+
Calculating finite basis set correction with  3 cut-off energies.
Calculating total energy with cut-off of  817.226 eV.
------------------------------------------------------------------------ <-- SCF
SCF loop      Energy           Fermi           Energy gain       Timer   <-- SCF
                               energy          per atom          (sec)   <-- SCF
------------------------------------------------------------------------ <-- SCF
Initial  -5.04139879E+003  0.00000000E+000                        12.34  <-- SCF
      1  -4.28182292E+003  1.48484363E+001  -7.59575877E+002      13.20  <-- SCF
      2  -4.32377739E+003  1.29769437E+001   4.19544691E+001      13.78  <-- SCF
      3  -4.32541265E+003  1.29831553E+001   1.63526683E+000      14.48  <-- SCF
      4  -4.32533382E+003  1.26344103E+001  -7.88304942E-002      16.60  <-- SCF
      5  -4.32521015E+003  1.26929029E+001  -1.23667773E-001      18.70  <-- SCF
      6  -4.32519655E+003  1.27076766E+001  -1.36094261E-002      20.79  <-- SCF
      7  -4.32519663E+003  1.27050861E+001   8.15472748E-005      22.95  <-- SCF
      8  -4.32519663E+003  1.27044198E+001   4.56512886E-006      24.77  <-- SCF
      9  -4.32519663E+003  1.27042200E+001   3.48724950E-007      26.60  <-- SCF
------------------------------------------------------------------------ <-- SCF
 
Final energy, E             =  -4325.191334113     eV
Final free energy (E-TS)    =  -4325.196631736     eV
(energies not corrected for finite basis set)
 
NB est. 0K energy (E-0.5TS)      =  -4325.193982924     eV
 
Calculating total energy with cut-off of  822.226 eV.
------------------------------------------------------------------------ <-- SCF
SCF loop      Energy           Fermi           Energy gain       Timer   <-- SCF
                               energy          per atom          (sec)   <-- SCF
------------------------------------------------------------------------ <-- SCF
Initial  -4.32519141E+003  0.00000000E+000                        29.64  <-- SCF
      1  -4.32519669E+003  1.27040732E+001   5.27811194E-003      30.20  <-- SCF
      2  -4.32519669E+003  1.27040732E+001   1.19590704E-007      32.02  <-- SCF
      3  -4.32519669E+003  1.27040803E+001   7.83022863E-008      33.87  <-- SCF
      4  -4.32519669E+003  1.27040677E+001   3.96147929E-008      35.71  <-- SCF
------------------------------------------------------------------------ <-- SCF
 
Final energy, E             =  -4325.191393291     eV
Final free energy (E-TS)    =  -4325.196690914     eV
(energies not corrected for finite basis set)
 
NB est. 0K energy (E-0.5TS)      =  -4325.194042102     eV
 
Calculating total energy with cut-off of  827.226 eV.
------------------------------------------------------------------------ <-- SCF
SCF loop      Energy           Fermi           Energy gain       Timer   <-- SCF
                               energy          per atom          (sec)   <-- SCF
------------------------------------------------------------------------ <-- SCF
Initial  -4.32519147E+003  0.00000000E+000                        38.81  <-- SCF
      1  -4.32519675E+003  1.27040906E+001   5.28161820E-003      39.40  <-- SCF
      2  -4.32519675E+003  1.27040906E+001   3.27145707E-008      41.24  <-- SCF
      3  -4.32519675E+003  1.27040572E+001   3.49141036E-008      43.07  <-- SCF
      4  -4.32519675E+003  1.27040856E+001   1.24036947E-008      44.88  <-- SCF
------------------------------------------------------------------------ <-- SCF
 
Final energy, E             =  -4325.191455756     eV
Final free energy (E-TS)    =  -4325.196753378     eV
(energies not corrected for finite basis set)
 
NB est. 0K energy (E-0.5TS)      =  -4325.194104567     eV
 
 For future reference: finite basis dEtot/dlog(Ecut) =      -0.011871eV
 Total energy corrected for finite basis set =   -4325.196755 eV
 
+---------------- MEMORY AND SCRATCH DISK ESTIMATES PER PROCESS --------------+
|                                                     Memory          Disk    |
| Model and support data                              768.1 MB         0.0 MB |
| Electronic energy minimisation requirements          19.6 MB         0.0 MB |
| Geometry minimisation requirements                   25.1 MB         0.0 MB |
|                                               ----------------------------- |
| Approx. total storage required per process          812.8 MB         0.0 MB |
|                                                                             |
| Requirements will fluctuate during execution and may exceed these estimates |
+-----------------------------------------------------------------------------+
 
 
 *********** Symmetrised Stress Tensor ***********
 *                                               *
 *          Cartesian components (GPa)           *
 * --------------------------------------------- *
 *             x             y             z     *
 *                                               *
 *  x     -3.588513      0.000000     -0.000000  *
 *  y      0.000000     -3.588513      0.000000  *
 *  z     -0.000000      0.000000     -3.588513  *
 *                                               *
 *  Pressure:    3.5885                          *
 *                                               *
 *************************************************
 LBFGS: finished iteration     0 with enthalpy= -4.32519676E+003 eV
  
 +-----------+-----------------+-----------------+------------+-----+ <-- LBFGS
 | Parameter |      value      |    tolerance    |    units   | OK? | <-- LBFGS
 +-----------+-----------------+-----------------+------------+-----+ <-- LBFGS
 |  dE/ion   |   0.000000E+000 |   2.000000E-005 |         eV | No  | <-- LBFGS
 |   Smax    |   3.588513E+000 |   1.000000E-001 |        GPa | No  | <-- LBFGS
 +-----------+-----------------+-----------------+------------+-----+ <-- LBFGS
  

================================================================================
 Starting LBFGS iteration          1 ...
================================================================================
  
 +------------+-------------+-------------+-----------------+ <-- min LBFGS
 |    Step    |   lambda    |   F.delta'  |    enthalpy     | <-- min LBFGS
 +------------+-------------+-------------+-----------------+ <-- min LBFGS
 |  previous  |    0.000000 |    0.024314 |    -4325.196755 | <-- min LBFGS
 +------------+-------------+-------------+-----------------+ <-- min LBFGS
  

--------------------------------------------------------------------------------
 LBFGS: starting iteration         1 with trial guess (lambda=  1.000000)
--------------------------------------------------------------------------------
 
                           -------------------------------
                                      Unit Cell
                           -------------------------------
        Real Lattice(A)              Reciprocal Lattice(1/A)
     2.0478876     2.0478876    -0.0000000        1.534065015   1.534065015  -1.534065015
     2.0478876    -0.0000000     2.0478876        1.534065015  -1.534065015   1.534065015
    -0.0000000     2.0478876     2.0478876       -1.534065015   1.534065015   1.534065015
 
                       Lattice parameters(A)       Cell Angles
                    a =      2.896150          alpha =   60.000000
                    b =      2.896150          beta  =   60.000000
                    c =      2.896150          gamma =   60.000000
 
                Current cell volume =            17.177040 A**3
                            density =             6.279790 amu/A**3
                                    =            10.427836 g/cm^3
 
------------------------------------------------------------------------ <-- SCF
SCF loop      Energy           Fermi           Energy gain       Timer   <-- SCF
                               energy          per atom          (sec)   <-- SCF
------------------------------------------------------------------------ <-- SCF
Initial  -4.32516116E+003  0.00000000E+000                        57.26  <-- SCF
      1  -4.32524226E+003  1.25318520E+001   8.10990329E-002      57.98  <-- SCF
      2  -4.32524275E+003  1.25318383E+001   4.89898539E-004      60.16  <-- SCF
      3  -4.32522884E+003  1.26318205E+001  -1.39022891E-002      62.27  <-- SCF
      4  -4.32519908E+003  1.25818094E+001  -2.97636507E-002      64.30  <-- SCF
      5  -4.32519919E+003  1.25815796E+001   1.09370115E-004      66.33  <-- SCF
      6  -4.32519919E+003  1.25809270E+001   1.15870833E-006      68.15  <-- SCF
      7  -4.32519919E+003  1.25811557E+001  -9.86733324E-007      69.95  <-- SCF
------------------------------------------------------------------------ <-- SCF
 
Final energy, E             =  -4325.193892459     eV
Final free energy (E-TS)    =  -4325.199190081     eV
(energies not corrected for finite basis set)
 
NB est. 0K energy (E-0.5TS)      =  -4325.196541270     eV
 
 
 *********** Symmetrised Stress Tensor ***********
 *                                               *
 *          Cartesian components (GPa)           *
 * --------------------------------------------- *
 *             x             y             z     *
 *                                               *
 *  x     -2.974181      0.000000     -0.000000  *
 *  y      0.000000     -2.974181      0.000000  *
 *  z     -0.000000      0.000000     -2.974181  *
 *                                               *
 *  Pressure:    2.9742                          *
 *                                               *
 *************************************************
  
 +------------+-------------+-------------+-----------------+ <-- min LBFGS
 |    Step    |   lambda    |   F.delta'  |    enthalpy     | <-- min LBFGS
 +------------+-------------+-------------+-----------------+ <-- min LBFGS
 |  previous  |    0.000000 |    0.024314 |    -4325.196755 | <-- min LBFGS
 | trial step |    1.000000 |    0.020248 |    -4325.199215 | <-- min LBFGS
 +------------+-------------+-------------+-----------------+ <-- min LBFGS
  

--------------------------------------------------------------------------------
 LBFGS: improving iteration         1 with line minimization (lambda=  5.980010)
--------------------------------------------------------------------------------
 
+---------------- MEMORY AND SCRATCH DISK ESTIMATES PER PROCESS --------------+
|                                                     Memory          Disk    |
| Model and support data                              768.3 MB         0.0 MB |
| Electronic energy minimisation requirements          19.8 MB         0.0 MB |
| Geometry minimisation requirements                   25.3 MB         0.0 MB |
|                                               ----------------------------- |
| Approx. total storage required per process          813.5 MB         0.0 MB |
|                                                                             |
| Requirements will fluctuate during execution and may exceed these estimates |
+-----------------------------------------------------------------------------+
 
 
                           -------------------------------
                                      Unit Cell
                           -------------------------------
        Real Lattice(A)              Reciprocal Lattice(1/A)
     2.0722276     2.0722276    -0.0000000        1.516046119   1.516046119  -1.516046119
     2.0722276    -0.0000000     2.0722276        1.516046119  -1.516046119   1.516046119
    -0.0000000     2.0722276     2.0722276       -1.516046119   1.516046119   1.516046119
 
                       Lattice parameters(A)       Cell Angles
                    a =      2.930572          alpha =   60.000000
                    b =      2.930572          beta  =   60.000000
                    c =      2.930572          gamma =   60.000000
 
                Current cell volume =            17.796819 A**3
                            density =             6.061095 amu/A**3
                                    =            10.064684 g/cm^3
 
------------------------------------------------------------------------ <-- SCF
SCF loop      Energy           Fermi           Energy gain       Timer   <-- SCF
                               energy          per atom          (sec)   <-- SCF
------------------------------------------------------------------------ <-- SCF
Initial  -4.32440252E+003  0.00000000E+000                        82.05  <-- SCF
      1  -4.32624490E+003  1.17645512E+001   1.84238109E+000      82.89  <-- SCF
      2  -4.32625802E+003  1.17641989E+001   1.31194806E-002      85.27  <-- SCF
      3  -4.32588310E+003  1.22381179E+001  -3.74920985E-001      87.49  <-- SCF
      4  -4.32520172E+003  1.19744294E+001  -6.81375949E-001      89.72  <-- SCF
      5  -4.32520306E+003  1.19898489E+001   1.33579052E-003      92.03  <-- SCF
      6  -4.32520293E+003  1.19888907E+001  -1.30541902E-004      94.18  <-- SCF
      7  -4.32520288E+003  1.19878132E+001  -4.94629352E-005      96.22  <-- SCF
      8  -4.32520288E+003  1.19880036E+001   7.75913051E-007      98.16  <-- SCF
      9  -4.32520288E+003  1.19881098E+001   1.70381815E-007     100.04  <-- SCF
------------------------------------------------------------------------ <-- SCF
 
Final energy, E             =  -4325.197579916     eV
Final free energy (E-TS)    =  -4325.202877539     eV
(energies not corrected for finite basis set)
 
NB est. 0K energy (E-0.5TS)      =  -4325.200228728     eV
 
 
 *********** Symmetrised Stress Tensor ***********
 *                                               *
 *          Cartesian components (GPa)           *
 * --------------------------------------------- *
 *             x             y             z     *
 *                                               *
 *  x      0.720791      0.000000     -0.000000  *
 *  y      0.000000      0.720791     -0.000000  *
 *  z     -0.000000     -0.000000      0.720791  *
 *                                               *
 *  Pressure:   -0.7208                          *
 *                                               *
 *************************************************
  
 +------------+-------------+-------------+-----------------+ <-- min LBFGS
 |    Step    |   lambda    |   F.delta'  |    enthalpy     | <-- min LBFGS
 +------------+-------------+-------------+-----------------+ <-- min LBFGS
 |  previous  |    0.000000 |    0.024314 |    -4325.196755 | <-- min LBFGS
 | trial step |    1.000000 |    0.020248 |    -4325.199215 | <-- min LBFGS
 |  line step |    5.980010 |   -0.005024 |    -4325.202873 | <-- min LBFGS
 +------------+-------------+-------------+-----------------+ <-- min LBFGS
  
 LBFGS: finished iteration     1 with enthalpy= -4.32520287E+003 eV
  
 +-----------+-----------------+-----------------+------------+-----+ <-- LBFGS
 | Parameter |      value      |    tolerance    |    units   | OK? | <-- LBFGS
 +-----------+-----------------+-----------------+------------+-----+ <-- LBFGS
 |  dE/ion   |   6.117683E-003 |   2.000000E-005 |         eV | No  | <-- LBFGS
 |   Smax    |   7.207915E-001 |   1.000000E-001 |        GPa | No  | <-- LBFGS
 +-----------+-----------------+-----------------+------------+-----+ <-- LBFGS
  

================================================================================
 Starting LBFGS iteration          2 ...
================================================================================
  
 +------------+-------------+-------------+-----------------+ <-- min LBFGS
 |    Step    |   lambda    |   F.delta'  |    enthalpy     | <-- min LBFGS
 +------------+-------------+-------------+-----------------+ <-- min LBFGS
 |  previous  |    0.000000 |    0.005024 |    -4325.202873 | <-- min LBFGS
 +------------+-------------+-------------+-----------------+ <-- min LBFGS
  

--------------------------------------------------------------------------------
 LBFGS: starting iteration         2 with trial guess (lambda=  1.000000)
--------------------------------------------------------------------------------
 
                           -------------------------------
                                      Unit Cell
                           -------------------------------
        Real Lattice(A)              Reciprocal Lattice(1/A)
     2.0672221     2.0672221    -0.0000000        1.519717007   1.519717007  -1.519717007
     2.0672221    -0.0000000     2.0672221        1.519717007  -1.519717007   1.519717007
    -0.0000000     2.0672221     2.0672221       -1.519717007   1.519717007   1.519717007
 
                       Lattice parameters(A)       Cell Angles
                    a =      2.923494          alpha =   60.000000
                    b =      2.923494          beta  =   60.000000
                    c =      2.923494          gamma =   60.000000
 
                Current cell volume =            17.668165 A**3
                            density =             6.105229 amu/A**3
                                    =            10.137972 g/cm^3
 
------------------------------------------------------------------------ <-- SCF
SCF loop      Energy           Fermi           Energy gain       Timer   <-- SCF
                               energy          per atom          (sec)   <-- SCF
------------------------------------------------------------------------ <-- SCF
Initial  -4.32516428E+003  0.00000000E+000                       112.15  <-- SCF
      1  -4.32524816E+003  1.21597128E+001   8.38856523E-002     112.88  <-- SCF
      2  -4.32524865E+003  1.21596989E+001   4.87077185E-004     115.08  <-- SCF
      3  -4.32523589E+003  1.20558896E+001  -1.27610056E-002     117.16  <-- SCF
      4  -4.32520314E+003  1.21054655E+001  -3.27491692E-002     119.22  <-- SCF
      5  -4.32520324E+003  1.21073721E+001   9.86205792E-005     121.22  <-- SCF
      6  -4.32520324E+003  1.21077138E+001   1.53370935E-006     123.09  <-- SCF
      7  -4.32520324E+003  1.21079911E+001   3.35823885E-006     124.92  <-- SCF
------------------------------------------------------------------------ <-- SCF
 
Final energy, E             =  -4325.197943896     eV
Final free energy (E-TS)    =  -4325.203241519     eV
(energies not corrected for finite basis set)
 
NB est. 0K energy (E-0.5TS)      =  -4325.200592708     eV
 
 
 *********** Symmetrised Stress Tensor ***********
 *                                               *
 *          Cartesian components (GPa)           *
 * --------------------------------------------- *
 *             x             y             z     *
 *                                               *
 *  x      0.938542      0.000000     -0.000000  *
 *  y      0.000000      0.938542     -0.000000  *
 *  z     -0.000000     -0.000000      0.938542  *
 *                                               *
 *  Pressure:   -0.9385                          *
 *                                               *
 *************************************************
  
 +------------+-------------+-------------+-----------------+ <-- min LBFGS
 |    Step    |   lambda    |   F.delta'  |    enthalpy     | <-- min LBFGS
 +------------+-------------+-------------+-----------------+ <-- min LBFGS
 |  previous  |    0.000000 |    0.005024 |    -4325.202873 | <-- min LBFGS
 | trial step |    1.000000 |    0.006511 |    -4325.203231 | <-- min LBFGS
 +------------+-------------+-------------+-----------------+ <-- min LBFGS
  

--------------------------------------------------------------------------------
 LBFGS: improving iteration         2 with line minimization (lambda= -3.380473)
--------------------------------------------------------------------------------
 
+---------------- MEMORY AND SCRATCH DISK ESTIMATES PER PROCESS --------------+
|                                                     Memory          Disk    |
| Model and support data                              768.4 MB         0.0 MB |
| Electronic energy minimisation requirements          19.9 MB         0.0 MB |
| Geometry minimisation requirements                   25.4 MB         0.0 MB |
|                                               ----------------------------- |
| Approx. total storage required per process          813.7 MB         0.0 MB |
|                                                                             |
| Requirements will fluctuate during execution and may exceed these estimates |
+-----------------------------------------------------------------------------+
 
 
                           -------------------------------
                                      Unit Cell
                           -------------------------------
        Real Lattice(A)              Reciprocal Lattice(1/A)
     2.0891485     2.0891485    -0.0000000        1.503767020   1.503767020  -1.503767020
     2.0891485    -0.0000000     2.0891485        1.503767020  -1.503767020   1.503767020
    -0.0000000     2.0891485     2.0891485       -1.503767020   1.503767020   1.503767020
 
                       Lattice parameters(A)       Cell Angles
                    a =      2.954502          alpha =   60.000000
                    b =      2.954502          beta  =   60.000000
                    c =      2.954502          gamma =   60.000000
 
                Current cell volume =            18.236351 A**3
                            density =             5.915010 amu/A**3
                                    =             9.822105 g/cm^3
 
------------------------------------------------------------------------ <-- SCF
SCF loop      Energy           Fermi           Energy gain       Timer   <-- SCF
                               energy          per atom          (sec)   <-- SCF
------------------------------------------------------------------------ <-- SCF
Initial  -4.32455335E+003  0.00000000E+000                       137.08  <-- SCF
      1  -4.32604326E+003  1.13912635E+001   1.48991209E+000     137.94  <-- SCF
      2  -4.32605378E+003  1.13909699E+001   1.05218754E-002     140.31  <-- SCF
      3  -4.32576289E+003  1.18196477E+001  -2.90896300E-001     142.49  <-- SCF
      4  -4.32519660E+003  1.15815180E+001  -5.66290440E-001     144.68  <-- SCF
      5  -4.32519795E+003  1.15948047E+001   1.35071108E-003     146.99  <-- SCF
      6  -4.32519785E+003  1.15939422E+001  -9.80239420E-005     149.08  <-- SCF
      7  -4.32519781E+003  1.15929938E+001  -3.57615177E-005     151.11  <-- SCF
      8  -4.32519781E+003  1.15931956E+001   5.16940488E-007     153.00  <-- SCF
      9  -4.32519781E+003  1.15932973E+001   1.39081782E-007     154.93  <-- SCF
------------------------------------------------------------------------ <-- SCF
 
Final energy, E             =  -4325.192516190     eV
Final free energy (E-TS)    =  -4325.197813813     eV
(energies not corrected for finite basis set)
 
NB est. 0K energy (E-0.5TS)      =  -4325.195165002     eV
 
 
 *********** Symmetrised Stress Tensor ***********
 *                                               *
 *          Cartesian components (GPa)           *
 * --------------------------------------------- *
 *             x             y             z     *
 *                                               *
 *  x      2.794816      0.000000     -0.000000  *
 *  y      0.000000      2.794816     -0.000000  *
 *  z     -0.000000     -0.000000      2.794816  *
 *                                               *
 *  Pressure:   -2.7948                          *
 *                                               *
 *************************************************
  
 +------------+-------------+-------------+-----------------+ <-- min LBFGS
 |    Step    |   lambda    |   F.delta'  |    enthalpy     | <-- min LBFGS
 +------------+-------------+-------------+-----------------+ <-- min LBFGS
 |  previous  |    0.000000 |    0.005024 |    -4325.202873 | <-- min LBFGS
 | trial step |    1.000000 |    0.006511 |    -4325.203231 | <-- min LBFGS
 |  line step |   -3.380473 |    0.019801 |    -4325.197824 | <-- min LBFGS
 +------------+-------------+-------------+-----------------+ <-- min LBFGS
  

--------------------------------------------------------------------------------
 LBFGS: improving iteration         2 with quad minimization (lambda=  1.967405)
--------------------------------------------------------------------------------
 
                           -------------------------------
                                      Unit Cell
                           -------------------------------
        Real Lattice(A)              Reciprocal Lattice(1/A)
     2.0623798     2.0623798    -0.0000000        1.523285198   1.523285198  -1.523285198
     2.0623798    -0.0000000     2.0623798        1.523285198  -1.523285198   1.523285198
    -0.0000000     2.0623798     2.0623798       -1.523285198   1.523285198   1.523285198
 
                       Lattice parameters(A)       Cell Angles
                    a =      2.916646          alpha =   60.000000
                    b =      2.916646          beta  =   60.000000
                    c =      2.916646          gamma =   60.000000
 
                Current cell volume =            17.544296 A**3
                            density =             6.148334 amu/A**3
                                    =            10.209549 g/cm^3
 
------------------------------------------------------------------------ <-- SCF
SCF loop      Energy           Fermi           Energy gain       Timer   <-- SCF
                               energy          per atom          (sec)   <-- SCF
------------------------------------------------------------------------ <-- SCF
Initial  -4.32423064E+003  0.00000000E+000                       167.00  <-- SCF
      1  -4.32649642E+003  1.25292141E+001   2.26578704E+000     167.72  <-- SCF
      2  -4.32651045E+003  1.25290357E+001   1.40286877E-002     169.91  <-- SCF
      3  -4.32619241E+003  1.19534318E+001  -3.18038802E-001     171.99  <-- SCF
      4  -4.32520321E+003  1.21931976E+001  -9.89197945E-001     174.09  <-- SCF
      5  -4.32520322E+003  1.22243854E+001   3.68696692E-006     176.26  <-- SCF
      6  -4.32520312E+003  1.22245628E+001  -9.61055967E-005     178.23  <-- SCF
      7  -4.32520305E+003  1.22242825E+001  -6.83515263E-005     180.21  <-- SCF
      8  -4.32520305E+003  1.22243603E+001   6.77190840E-007     182.07  <-- SCF
      9  -4.32520305E+003  1.22244180E+001   1.65023741E-007     183.93  <-- SCF
------------------------------------------------------------------------ <-- SCF
 
Final energy, E             =  -4325.197756831     eV
Final free energy (E-TS)    =  -4325.203054454     eV
(energies not corrected for finite basis set)
 
NB est. 0K energy (E-0.5TS)      =  -4325.200405642     eV
 
 
 *********** Symmetrised Stress Tensor ***********
 *                                               *
 *          Cartesian components (GPa)           *
 * --------------------------------------------- *
 *             x             y             z     *
 *                                               *
 *  x     -0.594533      0.000000     -0.000000  *
 *  y      0.000000     -0.594533      0.000000  *
 *  z     -0.000000      0.000000     -0.594533  *
 *                                               *
 *  Pressure:    0.5945                          *
 *                                               *
 *************************************************
  
 +------------+-------------+-------------+-----------------+ <-- min LBFGS
 |    Step    |   lambda    |   F.delta'  |    enthalpy     | <-- min LBFGS
 +------------+-------------+-------------+-----------------+ <-- min LBFGS
 |  previous  |    0.000000 |    0.005024 |    -4325.202873 | <-- min LBFGS
 | trial step |    1.000000 |    0.006511 |    -4325.203231 | <-- min LBFGS
 |  line step |   -3.380473 |    0.019801 |    -4325.197824 | <-- min LBFGS
 |  quad step |    1.967405 |   -0.004105 |    -4325.203041 | <-- min LBFGS
 +------------+-------------+-------------+-----------------+ <-- min LBFGS
  
 LBFGS: finished iteration     2 with enthalpy= -4.32520304E+003 eV
  
 +-----------+-----------------+-----------------+------------+-----+ <-- LBFGS
 | Parameter |      value      |    tolerance    |    units   | OK? | <-- LBFGS
 +-----------+-----------------+-----------------+------------+-----+ <-- LBFGS
 |  dE/ion   |   1.676809E-004 |   2.000000E-005 |         eV | No  | <-- LBFGS
 |   Smax    |   5.945332E-001 |   1.000000E-001 |        GPa | No  | <-- LBFGS
 +-----------+-----------------+-----------------+------------+-----+ <-- LBFGS
  

================================================================================
 Starting LBFGS iteration          3 ...
================================================================================
  
 +------------+-------------+-------------+-----------------+ <-- min LBFGS
 |    Step    |   lambda    |   F.delta'  |    enthalpy     | <-- min LBFGS
 +------------+-------------+-------------+-----------------+ <-- min LBFGS
 |  previous  |    0.000000 |    0.004105 |    -4325.203041 | <-- min LBFGS
 +------------+-------------+-------------+-----------------+ <-- min LBFGS
  

--------------------------------------------------------------------------------
 LBFGS: starting iteration         3 with trial guess (lambda=  1.000000)
--------------------------------------------------------------------------------
 
                           -------------------------------
                                      Unit Cell
                           -------------------------------
        Real Lattice(A)              Reciprocal Lattice(1/A)
     2.0668078     2.0668078    -0.0000000        1.520021639   1.520021639  -1.520021639
     2.0668078    -0.0000000     2.0668078        1.520021639  -1.520021639   1.520021639
    -0.0000000     2.0668078     2.0668078       -1.520021639   1.520021639   1.520021639
 
                       Lattice parameters(A)       Cell Angles
                    a =      2.922908          alpha =   60.000000
                    b =      2.922908          beta  =   60.000000
                    c =      2.922908          gamma =   60.000000
 
                Current cell volume =            17.657544 A**3
                            density =             6.108902 amu/A**3
                                    =            10.144070 g/cm^3
 
------------------------------------------------------------------------ <-- SCF
SCF loop      Energy           Fermi           Energy gain       Timer   <-- SCF
                               energy          per atom          (sec)   <-- SCF
------------------------------------------------------------------------ <-- SCF
Initial  -4.32517156E+003  0.00000000E+000                       196.17  <-- SCF
      1  -4.32523819E+003  1.20732827E+001   6.66268617E-002     196.88  <-- SCF
      2  -4.32523860E+003  1.20732712E+001   4.10317443E-004     199.14  <-- SCF
      3  -4.32522783E+003  1.21634206E+001  -1.07689542E-002     201.23  <-- SCF
      4  -4.32520316E+003  1.21180890E+001  -2.46677892E-002     203.32  <-- SCF
      5  -4.32520325E+003  1.21178806E+001   8.29468057E-005     205.29  <-- SCF
      6  -4.32520325E+003  1.21173114E+001   9.05820833E-007     207.12  <-- SCF
      7  -4.32520325E+003  1.21175007E+001  -6.80362530E-007     208.95  <-- SCF
------------------------------------------------------------------------ <-- SCF
 
Final energy, E             =  -4325.197949699     eV
Final free energy (E-TS)    =  -4325.203247322     eV
(energies not corrected for finite basis set)
 
NB est. 0K energy (E-0.5TS)      =  -4325.200598511     eV
 
 
 *********** Symmetrised Stress Tensor ***********
 *                                               *
 *          Cartesian components (GPa)           *
 * --------------------------------------------- *
 *             x             y             z     *
 *                                               *
 *  x     -0.108012     -0.000000     -0.000000  *
 *  y     -0.000000     -0.108012      0.000000  *
 *  z     -0.000000      0.000000     -0.108012  *
 *                                               *
 *  Pressure:    0.1080                          *
 *                                               *
 *************************************************
  
 +------------+-------------+-------------+-----------------+ <-- min LBFGS
 |    Step    |   lambda    |   F.delta'  |    enthalpy     | <-- min LBFGS
 +------------+-------------+-------------+-----------------+ <-- min LBFGS
 |  previous  |    0.000000 |    0.004105 |    -4325.203041 | <-- min LBFGS
 | trial step |    1.000000 |    0.000749 |    -4325.203232 | <-- min LBFGS
 +------------+-------------+-------------+-----------------+ <-- min LBFGS
  
 LBFGS: finished iteration     3 with enthalpy= -4.32520323E+003 eV
  
 +-----------+-----------------+-----------------+------------+-----+ <-- LBFGS
 | Parameter |      value      |    tolerance    |    units   | OK? | <-- LBFGS
 +-----------+-----------------+-----------------+------------+-----+ <-- LBFGS
 |  dE/ion   |   1.910105E-004 |   2.000000E-005 |         eV | No  | <-- LBFGS
 |   Smax    |   1.080123E-001 |   1.000000E-001 |        GPa | No  | <-- LBFGS
 +-----------+-----------------+-----------------+------------+-----+ <-- LBFGS
  

================================================================================
 Starting LBFGS iteration          4 ...
================================================================================
  
 +------------+-------------+-------------+-----------------+ <-- min LBFGS
 |    Step    |   lambda    |   F.delta'  |    enthalpy     | <-- min LBFGS
 +------------+-------------+-------------+-----------------+ <-- min LBFGS
 |  previous  |    0.000000 |    0.000749 |    -4325.203232 | <-- min LBFGS
 +------------+-------------+-------------+-----------------+ <-- min LBFGS
  

--------------------------------------------------------------------------------
 LBFGS: starting iteration         4 with trial guess (lambda=  1.000000)
--------------------------------------------------------------------------------
 
                           -------------------------------
                                      Unit Cell
                           -------------------------------
        Real Lattice(A)              Reciprocal Lattice(1/A)
     2.0677961     2.0677961    -0.0000000        1.519295195   1.519295195  -1.519295195
     2.0677961    -0.0000000     2.0677961        1.519295195  -1.519295195   1.519295195
    -0.0000000     2.0677961     2.0677961       -1.519295195   1.519295195   1.519295195
 
                       Lattice parameters(A)       Cell Angles
                    a =      2.924305          alpha =   60.000000
                    b =      2.924305          beta  =   60.000000
                    c =      2.924305          gamma =   60.000000
 
                Current cell volume =            17.682885 A**3
                            density =             6.100147 amu/A**3
                                    =            10.129532 g/cm^3
 
------------------------------------------------------------------------ <-- SCF
SCF loop      Energy           Fermi           Energy gain       Timer   <-- SCF
                               energy          per atom          (sec)   <-- SCF
------------------------------------------------------------------------ <-- SCF
Initial  -4.32519673E+003  0.00000000E+000                       221.09  <-- SCF
      1  -4.32520491E+003  1.20840476E+001   8.17888613E-003     221.94  <-- SCF
      2  -4.32520493E+003  1.20840474E+001   1.79667332E-005     223.96  <-- SCF
      3  -4.32520443E+003  1.21039489E+001  -5.02167104E-004     226.19  <-- SCF
      4  -4.32520321E+003  1.20940777E+001  -1.21134542E-003     228.36  <-- SCF
      5  -4.32520322E+003  1.20939254E+001   3.41623181E-006     230.26  <-- SCF
      6  -4.32520322E+003  1.20938580E+001   1.64512527E-007     232.18  <-- SCF
------------------------------------------------------------------------ <-- SCF
 
Final energy, E             =  -4325.197920896     eV
Final free energy (E-TS)    =  -4325.203218518     eV
(energies not corrected for finite basis set)
 
NB est. 0K energy (E-0.5TS)      =  -4325.200569707     eV
 
 
 *********** Symmetrised Stress Tensor ***********
 *                                               *
 *          Cartesian components (GPa)           *
 * --------------------------------------------- *
 *             x             y             z     *
 *                                               *
 *  x      0.149254     -0.000000     -0.000000  *
 *  y     -0.000000      0.149254      0.000000  *
 *  z     -0.000000      0.000000      0.149254  *
 *                                               *
 *  Pressure:   -0.1493                          *
 *                                               *
 *************************************************
  
 +------------+-------------+-------------+-----------------+ <-- min LBFGS
 |    Step    |   lambda    |   F.delta'  |    enthalpy     | <-- min LBFGS
 +------------+-------------+-------------+-----------------+ <-- min LBFGS
 |  previous  |    0.000000 |    0.000749 |    -4325.203232 | <-- min LBFGS
 | trial step |    1.000000 |   -0.001036 |    -4325.203214 | <-- min LBFGS
 +------------+-------------+-------------+-----------------+ <-- min LBFGS
  

--------------------------------------------------------------------------------
 LBFGS: improving iteration         4 with line minimization (lambda=  0.419614)
--------------------------------------------------------------------------------
 
                           -------------------------------
                                      Unit Cell
                           -------------------------------
        Real Lattice(A)              Reciprocal Lattice(1/A)
     2.0672225     2.0672225    -0.0000000        1.519716728   1.519716728  -1.519716728
     2.0672225    -0.0000000     2.0672225        1.519716728  -1.519716728   1.519716728
    -0.0000000     2.0672225     2.0672225       -1.519716728   1.519716728   1.519716728
 
                       Lattice parameters(A)       Cell Angles
                    a =      2.923494          alpha =   60.000000
                    b =      2.923494          beta  =   60.000000
                    c =      2.923494          gamma =   60.000000
 
                Current cell volume =            17.668175 A**3
                            density =             6.105226 amu/A**3
                                    =            10.137966 g/cm^3
 
------------------------------------------------------------------------ <-- SCF
SCF loop      Energy           Fermi           Energy gain       Timer   <-- SCF
                               energy          per atom          (sec)   <-- SCF
------------------------------------------------------------------------ <-- SCF
Initial  -4.32519759E+003  0.00000000E+000                       244.33  <-- SCF
      1  -4.32520383E+003  1.21135095E+001   6.23758233E-003     245.03  <-- SCF
      2  -4.32520383E+003  1.21135095E+001   3.63914719E-006     246.83  <-- SCF
      3  -4.32520366E+003  1.21017080E+001  -1.71867620E-004     248.92  <-- SCF
      4  -4.32520324E+003  1.21075119E+001  -4.23500542E-004     250.98  <-- SCF
      5  -4.32520324E+003  1.21075801E+001   1.49522680E-006     252.77  <-- SCF
      6  -4.32520324E+003  1.21076393E+001   7.50393366E-008     254.60  <-- SCF
------------------------------------------------------------------------ <-- SCF
 
Final energy, E             =  -4325.197940150     eV
Final free energy (E-TS)    =  -4325.203237772     eV
(energies not corrected for finite basis set)
 
NB est. 0K energy (E-0.5TS)      =  -4325.200588961     eV
 
 
 *********** Symmetrised Stress Tensor ***********
 *                                               *
 *          Cartesian components (GPa)           *
 * --------------------------------------------- *
 *             x             y             z     *
 *                                               *
 *  x      0.072928     -0.000000      0.000000  *
 *  y     -0.000000      0.072928     -0.000000  *
 *  z      0.000000     -0.000000      0.072928  *
 *                                               *
 *  Pressure:   -0.0729                          *
 *                                               *
 *************************************************
  
 +------------+-------------+-------------+-----------------+ <-- min LBFGS
 |    Step    |   lambda    |   F.delta'  |    enthalpy     | <-- min LBFGS
 +------------+-------------+-------------+-----------------+ <-- min LBFGS
 |  previous  |    0.000000 |    0.000749 |    -4325.203232 | <-- min LBFGS
 | trial step |    1.000000 |   -0.001036 |    -4325.203214 | <-- min LBFGS
 |  line step |    0.419614 |   -0.000506 |    -4325.203227 | <-- min LBFGS
 +------------+-------------+-------------+-----------------+ <-- min LBFGS
  
 LBFGS: finished iteration     4 with enthalpy= -4.32520323E+003 eV
  
 +-----------+-----------------+-----------------+------------+-----+ <-- LBFGS
 | Parameter |      value      |    tolerance    |    units   | OK? | <-- LBFGS
 +-----------+-----------------+-----------------+------------+-----+ <-- LBFGS
 |  dE/ion   |   4.786458E-006 |   2.000000E-005 |         eV | Yes | <-- LBFGS
 |   Smax    |   7.292764E-002 |   1.000000E-001 |        GPa | Yes | <-- LBFGS
 +-----------+-----------------+-----------------+------------+-----+ <-- LBFGS
  
 LBFGS: Geometry optimization completed successfully.

================================================================================
 LBFGS: Final Configuration:
================================================================================
 
                           -------------------------------
                                      Unit Cell
                           -------------------------------
        Real Lattice(A)              Reciprocal Lattice(1/A)
     2.0672225     2.0672225    -0.0000000        1.519716728   1.519716728  -1.519716728
     2.0672225    -0.0000000     2.0672225        1.519716728  -1.519716728   1.519716728
    -0.0000000     2.0672225     2.0672225       -1.519716728   1.519716728   1.519716728
 
                       Lattice parameters(A)       Cell Angles
                    a =      2.923494          alpha =   60.000000
                    b =      2.923494          beta  =   60.000000
                    c =      2.923494          gamma =   60.000000
 
                Current cell volume =            17.668175 A**3
                            density =             6.105226 amu/A**3
                                    =            10.137966 g/cm^3
 
 LBFGS: Final Enthalpy     = -4.32520323E+003 eV
 LBFGS: Final bulk modulus unchanged from initial value
 
 ******************************** Symmetrised Forces ********************************
 *                                                                                  *
 *                           Cartesian components (eV/A)                            *
 * -------------------------------------------------------------------------------- *
 *                         x                    y                    z              *
 *                                                                                  *
 * Ag              1      0.00000              0.00000              0.00000         *
 *                                                                                  *
 ************************************************************************************
 
 *********** Symmetrised Stress Tensor ***********
 *                                               *
 *          Cartesian components (GPa)           *
 * --------------------------------------------- *
 *             x             y             z     *
 *                                               *
 *  x      0.072928     -0.000000      0.000000  *
 *  y     -0.000000      0.072928     -0.000000  *
 *  z      0.000000     -0.000000      0.072928  *
 *                                               *
 *  Pressure:   -0.0729                          *
 *                                               *
 *************************************************
 
 Pseudo atomic calculation performed for Ag 4s2 4p6 4d10 5s1
 
 Converged in 37 iterations to a total energy of -4322.0821 eV
Charge spilling parameter for spin component 1 = 0.02%
 
            Orbital Populations       
     Ion    Atom   Orbital             Charge
  -------------------------------------------
     Ag     1      S                    1.998
     Ag     1      Px                   1.999
     Ag     1      Py                   1.998
     Ag     1      Pz                   1.998
     Ag     1      Dzz                  1.966
     Ag     1      Dzy                  1.912
     Ag     1      Dzx                  1.963
     Ag     1      Dxx-yy               1.961
     Ag     1      Dxy                  1.953
     Ag     1      S                    0.488
     Ag     1      Px                   0.394
     Ag     1      Py                   0.179
     Ag     1      Pz                   0.192
  -------------------------------------------
                           Total:      19.000
  -------------------------------------------
 
     Atomic Populations (Mulliken)
     -----------------------------
Species          Ion     s      p      d      f     Total  Charge (e)
=====================================================================
  Ag              1     2.49   6.76   9.75   0.00  19.00     0.00
=====================================================================
 
                 Bond                   Population      Length (A)
======================================================================
======================================================================
 

Writing analysis data to Ag.castep_bin

Writing model to Ag.check
 
 A BibTeX formatted list of references used in this run has been written to 
 Ag.bib
 
Initialisation time =      9.41 s
Calculation time    =    257.51 s
Finalisation time   =      0.82 s
Total time          =    267.74 s
Peak Memory Use     = 1207968 kB
