 +-------------------------------------------------+
 |                                                 |
 |      CCC   AA    SSS  TTTTT  EEEEE  PPPP        |
 |     C     A  A  S       T    E      P   P       |
 |     C     AAAA   SS     T    EEE    PPPP        |
 |     C     A  A     S    T    E      P           |
 |      CCC  A  A  SSS     T    EEEEE  P           |
 |                                                 |
 +-------------------------------------------------+
 |                                                 |
 | Welcome to Academic Release CASTEP version 20.1 |          
 | Ab Initio Total Energy Program                  |
 |                                                 |
 | Authors:                                        |
 | M. Segall, M. Probert, C. Pickard, P. Hasnip,   |
 | S. Clark, K. Refson, J. R. Yates, M. Payne      |
 |                                                 |
 | Contributors:                                   |
 | P. Lindan, P. Haynes, J. White, V. Milman,      |
 | N. Govind, M. Gibson, P. Tulip, V. Cocula,      |
 | B. Montanari, D. Quigley, M. Glover,            |
 | L. Bernasconi, A. Perlov, M. Plummer,           |
 | E. McNellis, J. Meyer, J. Gale, D. Jochym       |
 | J. Aarons, B. Walker, R. Gillen, D. Jones       |
 | T. Green, I. J. Bush, C. J. Armstrong,          |
 | E. J. Higgins, E. L. Brown, M. S. McFly,        |
 | J. Wilkins, B-C. Shih, P. J. P. Byrne,          |
 | R. J. Maurer, J. C. Womack, A. Bartok-Partay    |
 |                                                 |
 | Copyright (c) 2000 - 2019                       |
 |                                                 |
 |     Distributed under the terms of an           |
 |     Agreement between the United Kingdom        |
 |     Car-Parrinello (UKCP) Consortium,           |
 |     Daresbury Laboratory and Accelrys, Inc.     |
 |                                                 |
 | Please cite                                     |
 |                                                 |
 |     "First principles methods using CASTEP"     |
 |                                                 |
 |         Zeitschrift fuer Kristallographie       |
 |           220(5-6) pp. 567-570 (2005)           |
 |                                                 |
 | S. J. Clark, M. D. Segall, C. J. Pickard,       |
 | P. J. Hasnip, M. J. Probert, K. Refson,         |
 | M. C. Payne                                     |
 |                                                 |
 |       in all publications arising from          |
 |              your use of CASTEP                 |
 |                                                 |
 +-------------------------------------------------+
 |                                                 |
 |              http://www.castep.org              |
 |                                                 |
 +-------------------------------------------------+
 
 
 
 Compiled for linux_x86_64_ifort17 on Fri, 05 Jul 2019 11:35:54 +0100
 from code version 5dacc5c3c63b+  Mon, 10 Jun 2019 22:27:09 +0100
 Compiler: Intel Fortran 17.0.1.132; Optimisation: fast
 MATHLIBS: Intel MKL(2017.0.1) (LAPACK version 3.6.0)
 FFT Lib : mkl
 Fundamental constants values: CODATA 2014
 
 Run started: Fri, 05 Jul 2019 15:43:15 +0100
 
 Atomic calculation performed for O: 1s2 2s2 2p4
 
 Converged in 44 iterations to an ae energy of -2041.872 eV
 
   ============================================================                
   | Pseudopotential Report - Date of generation  5-07-2019   |                
   ------------------------------------------------------------                
   | Element: O Ionic charge:  6.00 Level of theory: RSCAN    |                
   | Atomic Solver: Koelling-Harmon                           |                
   |                                                          |                
   |               Reference Electronic Structure             |                
   |         Orbital         Occupation         Energy        |                
   |            2s              2.000           -0.932        |                
   |            2p              4.000           -0.344        |                
   |                                                          |                
   |                 Pseudopotential Definition               |                
   |        Beta     l      e      Rc     scheme   norm       |                
   |          1      0   -0.932   1.100     qc      0         |                
   |          2      0    0.250   1.100     qc      0         |                
   |          3      1   -0.344   1.100     qc      0         |                
   |          4      1    0.250   1.100     qc      0         |                
   |         loc     2    0.000   1.100     pn      0         |                
   |                                                          |                
   | Augmentation charge Rinner = 0.769                       |                
   | Partial core correction Rc = 0.769                       |                
   ------------------------------------------------------------                
   | "2|1.1|17|20|23|20:21(qc=8)"                             |                
   ------------------------------------------------------------                
   |      Author: Chris J. Pickard, Cambridge University      |                
   ============================================================                
 
 Atomic calculation performed for Mg: 1s2 2s2 2p6 3s2
 
 Exceeded max iterations: converged to 0.000003107 eV
 The ae energy is -5453.799 eV
 
   ============================================================                
   | Pseudopotential Report - Date of generation  5-07-2019   |                
   ------------------------------------------------------------                
   | Element: Mg Ionic charge: 10.00 Level of theory: RSCAN   |                
   | Atomic Solver: Koelling-Harmon                           |                
   |                                                          |                
   |               Reference Electronic Structure             |                
   |         Orbital         Occupation         Energy        |                
   |            2s              2.000           -3.051        |                
   |            2p              6.000           -1.771        |                
   |            3s              2.000           -0.177        |                
   |                                                          |                
   |                 Pseudopotential Definition               |                
   |        Beta     l      e      Rc     scheme   norm       |                
   |          1      0   -3.051   1.804     qc      0         |                
   |          2      0   -0.177   1.804     qc      0         |                
   |          3      0    0.250   1.804     qc      0         |                
   |          4      1   -1.771   1.804     qc      0         |                
   |          5      1    0.250   1.804     qc      0         |                
   |          6      2    0.000   1.804     qc      0         |                
   |          7      2    0.250   1.804     qc      0         |                
   |         loc     3    0.000   1.804     pn      0         |                
   |                                                          |                
   | Augmentation charge Rinner = 1.261                       |                
   | Partial core correction Rc = 1.261                       |                
   ------------------------------------------------------------                
   | "3|1.8|7|8|9|20U:30:21:32"                               |                
   ------------------------------------------------------------                
   |      Author: Chris J. Pickard, Cambridge University      |                
   ============================================================                
 
 Pseudo atomic calculation performed for O 2s2 2p4
 
 Converged in 22 iterations to a total energy of -430.7840 eV
 
 Pseudo atomic calculation performed for Mg 2s2 2p6 3s2
 
 Converged in 16 iterations to a total energy of -1693.1494 eV
 Calculation not parallelised.

 ************************************ Title ************************************
 

 ***************************** General Parameters ******************************
  
 output verbosity                               : normal  (1)
 write checkpoint data to                       : MgO.check
 type of calculation                            : geometry optimization
 stress calculation                             : off
 density difference calculation                 : off
 electron localisation func (ELF) calculation   : off
 Hirshfeld analysis                             : off
 molecular orbital projected DOS                : off
 deltaSCF calculation                           : off
 unlimited duration calculation
 timing information                             : on
 memory usage estimate                          : on
 write extra output files                       : on
 write final potential to formatted file        : off
 write final density to formatted file          : off
 write BibTeX reference list                    : on
 write OTFG pseudopotential files               : on
 write electrostatic potential file             : on
 write bands file                               : on
 checkpoint writing                             : both castep_bin and check files
  
 output         length unit                     : A
 output           mass unit                     : amu
 output           time unit                     : ps
 output         charge unit                     : e
 output           spin unit                     : hbar/2
 output         energy unit                     : eV
 output          force unit                     : eV/A
 output       velocity unit                     : A/ps
 output       pressure unit                     : GPa
 output     inv_length unit                     : 1/A
 output      frequency unit                     : cm-1
 output force constant unit                     : eV/A**2
 output         volume unit                     : A**3
 output   IR intensity unit                     : (D/A)**2/amu
 output         dipole unit                     : D
 output         efield unit                     : eV/A/e
 output        entropy unit                     : J/mol/K
  
 wavefunctions paging                           : none
 random number generator seed                   : randomised (154315393)
 data distribution                              : optimal for this architecture
 optimization strategy                          : maximize speed(+++)

 *********************** Exchange-Correlation Parameters ***********************
  
 using functional                               : RSCAN
 relativistic treatment                         : Koelling-Harmon
 DFT+D: Semi-empirical dispersion correction    : off

 ************************* Pseudopotential Parameters **************************
  
 pseudopotential representation                 : reciprocal space
 <beta|phi> representation                      : reciprocal space
 spin-orbit coupling                            : off

 **************************** Basis Set Parameters *****************************
  
 basis set accuracy                             : PRECISE
 plane wave basis set cut-off                   :   751.0343   eV
 size of standard grid                          :     1.7500
 size of   fine   grid                          :     4.0000
 size of   fine   gmax                          :    56.1602   1/A
 finite basis set correction                    : automatic
 number of sample energies                      :          3
           sample  spacing                      :     5.0000   eV

 **************************** Electronic Parameters ****************************
  
 number of  electrons                           :  16.00    
 net charge of system                           :  0.000    
 treating system as non-spin-polarized
 number of bands                                :         12

 ********************* Electronic Minimization Parameters **********************
  
 Method: Treating system as metallic with density mixing treatment of electrons,
         and number of  SD  steps               :          1
         and number of  CG  steps               :          4
  
 total energy / atom convergence tol.           : 0.1000E-04   eV
 eigen-energy convergence tolerance             : 0.1000E-05   eV
 max force / atom convergence tol.              : ignored
 convergence tolerance window                   :          3   cycles
 max. number of SCF cycles                      :         30
 number of fixed-spin iterations                :         10
 smearing scheme                                : Gaussian
 smearing width                                 : 0.2000       eV
 Fermi energy convergence tolerance             : 0.2721E-13   eV
 periodic dipole correction                     : NONE

 ************************** Density Mixing Parameters **************************
  
 density-mixing scheme                          : Broyden
 max. length of mixing history                  :         20
 charge density mixing amplitude                : 0.8000    

 *********************** Population Analysis Parameters ************************
  
 Population analysis with cutoff                :  3.000       A
 Population analysis output                     : summary and pdos components

 ********************** Geometry Optimization Parameters ***********************
  
 optimization method                            : LBFGS
 max. no. of LBFGS updates                      : unbounded
 variable cell method                           : fixed basis quality
 max. number of steps                           :         30
 estimated bulk modulus                         :  500.0       GPa
 estimated <frequency>                          :  1668.       cm-1
 geom line minimiser                            : on
 with line minimiser tolerance                  :     0.4000
 total energy convergence tolerance             : 0.2000E-04   eV/atom
        max ionic |force| tolerance             : 0.5000E-01   eV/A
 max ionic |displacement| tolerance             : 0.1000E-02   A
   max |stress component| tolerance             : 0.1000       GPa
 convergence tolerance window                   :          2   steps
 backup results every                           :          5   steps
 write geom trajectory file                     : on

 *******************************************************************************
  
 
                           -------------------------------
                                      Unit Cell
                           -------------------------------
        Real Lattice(A)                      Reciprocal Lattice(1/A)
     2.1056500     2.1056500     0.0000000        1.491982359   1.491982359  -1.491982359
     2.1056500     0.0000000     2.1056500        1.491982359  -1.491982359   1.491982359
     0.0000000     2.1056500     2.1056500       -1.491982359   1.491982359   1.491982359
 
                       Lattice parameters(A)       Cell Angles
                    a =      2.977839          alpha =   60.000000
                    b =      2.977839          beta  =   60.000000
                    c =      2.977839          gamma =   60.000000
 
                       Current cell volume =            18.671902       A**3
                                   density =             2.158559   AMU/A**3
                                           =             3.584371     g/cm^3
 
                           -------------------------------
                                     Cell Contents
                           -------------------------------
                         Total number of ions in cell =    2
                      Total number of species in cell =    2
                        Max number of any one species =    1
 
            xxxxxxxxxxxxxxxxxxxxxxxxxxxxxxxxxxxxxxxxxxxxxxxxxxxxxxxxxxxx
            x  Element    Atom        Fractional coordinates of atoms  x
            x            Number           u          v          w      x
            x----------------------------------------------------------x
            x  O            1         0.500000   0.500000   0.500000   x 
            x  Mg           1         0.000000   0.000000   0.000000   x 
            xxxxxxxxxxxxxxxxxxxxxxxxxxxxxxxxxxxxxxxxxxxxxxxxxxxxxxxxxxxx
 
 
                         No user defined ionic velocities
 
                           -------------------------------
                                   Details of Species
                           -------------------------------
 
                               Mass of species in AMU
                                    O   15.9994000
                                    Mg   24.3050000
 
                          Electric Quadrupole Moment (Barn)
                                    O   -0.0255800 Isotope 17
                                    Mg    0.1994000 Isotope 25
 
                          Files used for pseudopotentials:
                                    O 2|1.1|17|20|23|20:21(qc=8)
                                    Mg 3|1.8|7|8|9|20U:30:21:32
 
                           -------------------------------
                              k-Points For BZ Sampling
                           -------------------------------
                       MP grid size for SCF calculation is  5  5  5
                            with an offset of   0.000  0.000  0.000
                       Number of kpoints used =            10
 
                           -------------------------------
                               Symmetry and Constraints
                           -------------------------------
 
                      Maximum deviation from symmetry =  0.00000         ANG
 
                      Number of symmetry operations   =          48
                      Number of ionic constraints     =           3
                      Point group of crystal =    32: Oh, m-3m, 4/m -3 2/m
                      Space group of crystal =   225: Fm-3m, -F 4 2 3
 
             Set iprint > 1 for details on symmetry rotations/translations
 
                         Centre of mass is constrained
             Set iprint > 1 for details of linear ionic constraints
 
                         Number of cell constraints= 5
                         Cell constraints are:  1 1 1 0 0 0
 
                         External pressure/stress (GPa)
                          0.00000   0.00000   0.00000
                                    0.00000   0.00000
                                              0.00000
  
+---------------- MEMORY AND SCRATCH DISK ESTIMATES PER PROCESS --------------+
|                                                     Memory          Disk    |
| Baseline code, static data and system overhead       46.0 MB         0.0 MB |
| BLAS internal memory storage                          0.0 MB         0.0 MB |
| Model and support data                              746.6 MB         0.0 MB |
| Electronic energy minimisation requirements          14.9 MB         0.0 MB |
| Force calculation requirements                       23.5 MB         0.0 MB |
|                                               ----------------------------- |
| Approx. total storage required per process          816.0 MB         0.0 MB |
|                                                                             |
| Requirements will fluctuate during execution and may exceed these estimates |
+-----------------------------------------------------------------------------+
Calculating finite basis set correction with  3 cut-off energies.
Calculating total energy with cut-off of  741.034 eV.
------------------------------------------------------------------------ <-- SCF
SCF loop      Energy           Fermi           Energy gain       Timer   <-- SCF
                               energy          per atom          (sec)   <-- SCF
------------------------------------------------------------------------ <-- SCF
Initial  -1.65715139E+003  0.00000000E+000                        13.99  <-- SCF
      1  -2.11324355E+003  5.89044923E+000   2.28046082E+002      14.76  <-- SCF
      2  -2.14154980E+003  3.16753705E-001   1.41531219E+001      15.31  <-- SCF
      3  -2.14174291E+003  3.26056571E-001   9.65578845E-002      15.81  <-- SCF
      4  -2.13773415E+003  5.70676812E+000  -2.00437962E+000      17.73  <-- SCF
      5  -2.13783375E+003  2.33293650E+000   4.97976184E-002      19.65  <-- SCF
      6  -2.13743240E+003  3.14225902E+000  -2.00675777E-001      21.59  <-- SCF
      7  -2.13739865E+003  3.84346790E+000  -1.68754805E-002      23.51  <-- SCF
      8  -2.13740633E+003  3.76464441E+000   3.84301171E-003      25.42  <-- SCF
      9  -2.13740643E+003  3.76873303E+000   4.84176706E-005      27.20  <-- SCF
     10  -2.13740643E+003  3.76802063E+000   1.72787032E-006      28.89  <-- SCF
     11  -2.13740643E+003  3.76821778E+000   1.90067209E-007      30.57  <-- SCF
------------------------------------------------------------------------ <-- SCF
 
Final energy, E             =  -2137.406433286     eV
Final free energy (E-TS)    =  -2137.406433286     eV
(energies not corrected for finite basis set)
 
NB est. 0K energy (E-0.5TS)      =  -2137.406433286     eV
 
Calculating total energy with cut-off of  746.034 eV.
------------------------------------------------------------------------ <-- SCF
SCF loop      Energy           Fermi           Energy gain       Timer   <-- SCF
                               energy          per atom          (sec)   <-- SCF
------------------------------------------------------------------------ <-- SCF
Initial  -2.13740644E+003  0.00000000E+000                        33.43  <-- SCF
      1  -2.13740873E+003  3.76876734E+000   1.14618205E-003      34.01  <-- SCF
      2  -2.13740873E+003  3.76876734E+000   2.19263030E-007      35.68  <-- SCF
      3  -2.13740873E+003  3.76897641E+000   9.20825452E-007      37.36  <-- SCF
      4  -2.13740873E+003  3.76865180E+000   7.31033378E-008      39.03  <-- SCF
------------------------------------------------------------------------ <-- SCF
 
Final energy, E             =  -2137.408732167     eV
Final free energy (E-TS)    =  -2137.408732167     eV
(energies not corrected for finite basis set)
 
NB est. 0K energy (E-0.5TS)      =  -2137.408732167     eV
 
Calculating total energy with cut-off of  751.034 eV.
------------------------------------------------------------------------ <-- SCF
SCF loop      Energy           Fermi           Energy gain       Timer   <-- SCF
                               energy          per atom          (sec)   <-- SCF
------------------------------------------------------------------------ <-- SCF
Initial  -2.13740874E+003  0.00000000E+000                        41.87  <-- SCF
      1  -2.13741023E+003  3.76792759E+000   7.46919165E-004      42.44  <-- SCF
      2  -2.13741023E+003  3.76792733E+000   1.40591641E-007      44.11  <-- SCF
      3  -2.13741023E+003  3.76796480E+000   4.88727071E-007      45.79  <-- SCF
      4  -2.13741023E+003  3.76783447E+000   3.56584954E-008      47.46  <-- SCF
------------------------------------------------------------------------ <-- SCF
 
Final energy, E             =  -2137.410231669     eV
Final free energy (E-TS)    =  -2137.410231669     eV
(energies not corrected for finite basis set)
 
NB est. 0K energy (E-0.5TS)      =  -2137.410231669     eV
 
 For future reference: finite basis dEtot/dlog(Ecut) =      -0.294162eV
 Total energy corrected for finite basis set =   -2137.410384 eV
 
+---------------- MEMORY AND SCRATCH DISK ESTIMATES PER PROCESS --------------+
|                                                     Memory          Disk    |
| Model and support data                              750.9 MB         0.0 MB |
| Electronic energy minimisation requirements          14.9 MB         0.0 MB |
| Geometry minimisation requirements                   19.0 MB         0.0 MB |
|                                               ----------------------------- |
| Approx. total storage required per process          784.8 MB         0.0 MB |
|                                                                             |
| Requirements will fluctuate during execution and may exceed these estimates |
+-----------------------------------------------------------------------------+
 
 
 *********** Symmetrised Stress Tensor ***********
 *                                               *
 *          Cartesian components (GPa)           *
 * --------------------------------------------- *
 *             x             y             z     *
 *                                               *
 *  x      3.022034      0.000000      0.000000  *
 *  y      0.000000      3.022034      0.000000  *
 *  z      0.000000      0.000000      3.022034  *
 *                                               *
 *  Pressure:   -3.0220                          *
 *                                               *
 *************************************************
 LBFGS: finished iteration     0 with enthalpy= -2.13741038E+003 eV
  
 +-----------+-----------------+-----------------+------------+-----+ <-- LBFGS
 | Parameter |      value      |    tolerance    |    units   | OK? | <-- LBFGS
 +-----------+-----------------+-----------------+------------+-----+ <-- LBFGS
 |  dE/ion   |   0.000000E+000 |   2.000000E-005 |         eV | No  | <-- LBFGS
 |   Smax    |   3.022034E+000 |   1.000000E-001 |        GPa | No  | <-- LBFGS
 +-----------+-----------------+-----------------+------------+-----+ <-- LBFGS
  

================================================================================
 Starting LBFGS iteration          1 ...
================================================================================
  
 +------------+-------------+-------------+-----------------+ <-- min LBFGS
 |    Step    |   lambda    |   F.delta'  |    enthalpy     | <-- min LBFGS
 +------------+-------------+-------------+-----------------+ <-- min LBFGS
 |  previous  |    0.000000 |    0.022418 |    -2137.410384 | <-- min LBFGS
 +------------+-------------+-------------+-----------------+ <-- min LBFGS
  

--------------------------------------------------------------------------------
 LBFGS: starting iteration         1 with trial guess (lambda=  1.000000)
--------------------------------------------------------------------------------
 
                           -------------------------------
                                      Unit Cell
                           -------------------------------
        Real Lattice(A)              Reciprocal Lattice(1/A)
     2.1014078     2.1014078    -0.0000000        1.494994307   1.494994307  -1.494994307
     2.1014078    -0.0000000     2.1014078        1.494994307  -1.494994307   1.494994307
    -0.0000000     2.1014078     2.1014078       -1.494994307   1.494994307   1.494994307
 
                       Lattice parameters(A)       Cell Angles
                    a =      2.971839          alpha =   60.000000
                    b =      2.971839          beta  =   60.000000
                    c =      2.971839          gamma =   60.000000
 
                Current cell volume =            18.559275 A**3
                            density =             2.171658 amu/A**3
                                    =             3.606123 g/cm^3
 
------------------------------------------------------------------------ <-- SCF
SCF loop      Energy           Fermi           Energy gain       Timer   <-- SCF
                               energy          per atom          (sec)   <-- SCF
------------------------------------------------------------------------ <-- SCF
Initial  -2.13740467E+003  0.00000000E+000                        58.75  <-- SCF
      1  -2.13741683E+003  3.91730156E+000   6.07919400E-003      59.43  <-- SCF
      2  -2.13741685E+003  3.91730017E+000   1.18743855E-005      61.25  <-- SCF
      3  -2.13741373E+003  3.72807648E+000  -1.55879012E-003      63.15  <-- SCF
      4  -2.13741214E+003  3.81930529E+000  -7.97125694E-004      64.98  <-- SCF
      5  -2.13741224E+003  3.81313085E+000   4.76232226E-005      66.78  <-- SCF
      6  -2.13741224E+003  3.81233535E+000   6.06758226E-007      68.45  <-- SCF
      7  -2.13741224E+003  3.81194079E+000   4.56412732E-008      70.12  <-- SCF
------------------------------------------------------------------------ <-- SCF
 
Final energy, E             =  -2137.412236885     eV
Final free energy (E-TS)    =  -2137.412236885     eV
(energies not corrected for finite basis set)
 
NB est. 0K energy (E-0.5TS)      =  -2137.412236885     eV
 
 
 *********** Symmetrised Stress Tensor ***********
 *                                               *
 *          Cartesian components (GPa)           *
 * --------------------------------------------- *
 *             x             y             z     *
 *                                               *
 *  x      2.020627     -0.000000     -0.000000  *
 *  y     -0.000000      2.020627     -0.000000  *
 *  z     -0.000000     -0.000000      2.020627  *
 *                                               *
 *  Pressure:   -2.0206                          *
 *                                               *
 *************************************************
  
 +------------+-------------+-------------+-----------------+ <-- min LBFGS
 |    Step    |   lambda    |   F.delta'  |    enthalpy     | <-- min LBFGS
 +------------+-------------+-------------+-----------------+ <-- min LBFGS
 |  previous  |    0.000000 |    0.022418 |    -2137.410384 | <-- min LBFGS
 | trial step |    1.000000 |    0.014929 |    -2137.412240 | <-- min LBFGS
 +------------+-------------+-------------+-----------------+ <-- min LBFGS
  

--------------------------------------------------------------------------------
 LBFGS: improving iteration         1 with line minimization (lambda=  2.993476)
--------------------------------------------------------------------------------
 
                           -------------------------------
                                      Unit Cell
                           -------------------------------
        Real Lattice(A)              Reciprocal Lattice(1/A)
     2.0929510     2.0929510    -0.0000000        1.501034986   1.501034986  -1.501034986
     2.0929510    -0.0000000     2.0929510        1.501034986  -1.501034986   1.501034986
    -0.0000000     2.0929510     2.0929510       -1.501034986   1.501034986   1.501034986
 
                       Lattice parameters(A)       Cell Angles
                    a =      2.959880          alpha =   60.000000
                    b =      2.959880          beta  =   60.000000
                    c =      2.959880          gamma =   60.000000
 
                Current cell volume =            18.336108 A**3
                            density =             2.198089 amu/A**3
                                    =             3.650013 g/cm^3
 
------------------------------------------------------------------------ <-- SCF
SCF loop      Energy           Fermi           Energy gain       Timer   <-- SCF
                               energy          per atom          (sec)   <-- SCF
------------------------------------------------------------------------ <-- SCF
Initial  -2.13738383E+003  0.00000000E+000                        81.11  <-- SCF
      1  -2.13743231E+003  4.11213722E+000   2.42417468E-002      81.79  <-- SCF
      2  -2.13743240E+003  4.11213208E+000   4.70003408E-005      83.66  <-- SCF
      3  -2.13741987E+003  3.73576589E+000  -6.26456206E-003      85.57  <-- SCF
      4  -2.13741367E+003  3.91645068E+000  -3.10188041E-003      87.41  <-- SCF
      5  -2.13741401E+003  3.90438186E+000   1.71587531E-004      89.24  <-- SCF
      6  -2.13741402E+003  3.90266244E+000   2.01638557E-006      90.91  <-- SCF
      7  -2.13741402E+003  3.90208210E+000   1.52050248E-007      92.58  <-- SCF
------------------------------------------------------------------------ <-- SCF
 
Final energy, E             =  -2137.414017784     eV
Final free energy (E-TS)    =  -2137.414017784     eV
(energies not corrected for finite basis set)
 
NB est. 0K energy (E-0.5TS)      =  -2137.414017784     eV
 
 
 *********** Symmetrised Stress Tensor ***********
 *                                               *
 *          Cartesian components (GPa)           *
 * --------------------------------------------- *
 *             x             y             z     *
 *                                               *
 *  x     -0.076757     -0.000000     -0.000000  *
 *  y     -0.000000     -0.076757     -0.000000  *
 *  z     -0.000000     -0.000000     -0.076757  *
 *                                               *
 *  Pressure:    0.0768                          *
 *                                               *
 *************************************************
  
 +------------+-------------+-------------+-----------------+ <-- min LBFGS
 |    Step    |   lambda    |   F.delta'  |    enthalpy     | <-- min LBFGS
 +------------+-------------+-------------+-----------------+ <-- min LBFGS
 |  previous  |    0.000000 |    0.022418 |    -2137.410384 | <-- min LBFGS
 | trial step |    1.000000 |    0.014929 |    -2137.412240 | <-- min LBFGS
 |  line step |    2.993476 |   -0.000563 |    -2137.413827 | <-- min LBFGS
 +------------+-------------+-------------+-----------------+ <-- min LBFGS
  
 LBFGS: finished iteration     1 with enthalpy= -2.13741383E+003 eV
  
 +-----------+-----------------+-----------------+------------+-----+ <-- LBFGS
 | Parameter |      value      |    tolerance    |    units   | OK? | <-- LBFGS
 +-----------+-----------------+-----------------+------------+-----+ <-- LBFGS
 |  dE/ion   |   1.721544E-003 |   2.000000E-005 |         eV | No  | <-- LBFGS
 |   Smax    |   7.675669E-002 |   1.000000E-001 |        GPa | Yes | <-- LBFGS
 +-----------+-----------------+-----------------+------------+-----+ <-- LBFGS
  

================================================================================
 Starting LBFGS iteration          2 ...
================================================================================
  
 +------------+-------------+-------------+-----------------+ <-- min LBFGS
 |    Step    |   lambda    |   F.delta'  |    enthalpy     | <-- min LBFGS
 +------------+-------------+-------------+-----------------+ <-- min LBFGS
 |  previous  |    0.000000 |    0.000563 |    -2137.413827 | <-- min LBFGS
 +------------+-------------+-------------+-----------------+ <-- min LBFGS
  

--------------------------------------------------------------------------------
 LBFGS: starting iteration         2 with trial guess (lambda=  1.000000)
--------------------------------------------------------------------------------
 
                           -------------------------------
                                      Unit Cell
                           -------------------------------
        Real Lattice(A)              Reciprocal Lattice(1/A)
     2.0932618     2.0932618    -0.0000000        1.500812072   1.500812072  -1.500812072
     2.0932618    -0.0000000     2.0932618        1.500812072  -1.500812072   1.500812072
    -0.0000000     2.0932618     2.0932618       -1.500812072   1.500812072   1.500812072
 
                       Lattice parameters(A)       Cell Angles
                    a =      2.960319          alpha =   60.000000
                    b =      2.960319          beta  =   60.000000
                    c =      2.960319          gamma =   60.000000
 
                Current cell volume =            18.344280 A**3
                            density =             2.197110 amu/A**3
                                    =             3.648387 g/cm^3
 
------------------------------------------------------------------------ <-- SCF
SCF loop      Energy           Fermi           Energy gain       Timer   <-- SCF
                               energy          per atom          (sec)   <-- SCF
------------------------------------------------------------------------ <-- SCF
Initial  -2.13741389E+003  0.00000000E+000                       103.59  <-- SCF
      1  -2.13741396E+003  3.89162871E+000   3.24096932E-005     104.23  <-- SCF
      2  -2.13741396E+003  3.89162871E+000   5.96980978E-008     105.90  <-- SCF
      3  -2.13741394E+003  3.90502748E+000  -8.51593454E-006     107.64  <-- SCF
      4  -2.13741393E+003  3.89851518E+000  -3.89013427E-006     109.31  <-- SCF
      5  -2.13741393E+003  3.89872878E+000   2.79885140E-007     110.97  <-- SCF
------------------------------------------------------------------------ <-- SCF
 
Final energy, E             =  -2137.413932438     eV
Final free energy (E-TS)    =  -2137.413932438     eV
(energies not corrected for finite basis set)
 
NB est. 0K energy (E-0.5TS)      =  -2137.413932438     eV
 
 
 *********** Symmetrised Stress Tensor ***********
 *                                               *
 *          Cartesian components (GPa)           *
 * --------------------------------------------- *
 *             x             y             z     *
 *                                               *
 *  x      0.005807     -0.000000      0.000000  *
 *  y     -0.000000      0.005807     -0.000000  *
 *  z      0.000000     -0.000000      0.005807  *
 *                                               *
 *  Pressure:   -0.0058                          *
 *                                               *
 *************************************************
  
 +------------+-------------+-------------+-----------------+ <-- min LBFGS
 |    Step    |   lambda    |   F.delta'  |    enthalpy     | <-- min LBFGS
 +------------+-------------+-------------+-----------------+ <-- min LBFGS
 |  previous  |    0.000000 |    0.000563 |    -2137.413827 | <-- min LBFGS
 | trial step |    1.000000 |   -0.000043 |    -2137.413829 | <-- min LBFGS
 +------------+-------------+-------------+-----------------+ <-- min LBFGS
  
 LBFGS: finished iteration     2 with enthalpy= -2.13741383E+003 eV
  
 +-----------+-----------------+-----------------+------------+-----+ <-- LBFGS
 | Parameter |      value      |    tolerance    |    units   | OK? | <-- LBFGS
 +-----------+-----------------+-----------------+------------+-----+ <-- LBFGS
 |  dE/ion   |   1.015052E-006 |   2.000000E-005 |         eV | Yes | <-- LBFGS
 |   Smax    |   5.807299E-003 |   1.000000E-001 |        GPa | Yes | <-- LBFGS
 +-----------+-----------------+-----------------+------------+-----+ <-- LBFGS
  
 LBFGS: Geometry optimization completed successfully.

================================================================================
 LBFGS: Final Configuration:
================================================================================
 
                           -------------------------------
                                      Unit Cell
                           -------------------------------
        Real Lattice(A)              Reciprocal Lattice(1/A)
     2.0932618     2.0932618    -0.0000000        1.500812072   1.500812072  -1.500812072
     2.0932618    -0.0000000     2.0932618        1.500812072  -1.500812072   1.500812072
    -0.0000000     2.0932618     2.0932618       -1.500812072   1.500812072   1.500812072
 
                       Lattice parameters(A)       Cell Angles
                    a =      2.960319          alpha =   60.000000
                    b =      2.960319          beta  =   60.000000
                    c =      2.960319          gamma =   60.000000
 
                Current cell volume =            18.344280 A**3
                            density =             2.197110 amu/A**3
                                    =             3.648387 g/cm^3
 
 LBFGS: Final Enthalpy     = -2.13741383E+003 eV
 LBFGS: Final bulk modulus unchanged from initial value
 
 ******************************** Symmetrised Forces ********************************
 *                                                                                  *
 *                           Cartesian components (eV/A)                            *
 * -------------------------------------------------------------------------------- *
 *                         x                    y                    z              *
 *                                                                                  *
 * O               1      0.00000              0.00000              0.00000         *
 * Mg              1      0.00000              0.00000              0.00000         *
 *                                                                                  *
 ************************************************************************************
 
 *********** Symmetrised Stress Tensor ***********
 *                                               *
 *          Cartesian components (GPa)           *
 * --------------------------------------------- *
 *             x             y             z     *
 *                                               *
 *  x      0.005807     -0.000000      0.000000  *
 *  y     -0.000000      0.005807     -0.000000  *
 *  z      0.000000     -0.000000      0.005807  *
 *                                               *
 *  Pressure:   -0.0058                          *
 *                                               *
 *************************************************
 
 Pseudo atomic calculation performed for O 2s2 2p4
 
 Converged in 22 iterations to a total energy of -430.7840 eV
 
 Pseudo atomic calculation performed for Mg 2s2 2p6 3s2
 
 Converged in 16 iterations to a total energy of -1693.1494 eV
Charge spilling parameter for spin component 1 = 0.24%
 
            Orbital Populations       
     Ion    Atom   Orbital             Charge
  -------------------------------------------
      O     1      S                    1.852
      O     1      Px                   1.739
      O     1      Py                   1.702
      O     1      Pz                   1.746
     Mg     1      S                    2.001
     Mg     1      Px                   2.001
     Mg     1      Py                   2.001
     Mg     1      Pz                   2.001
     Mg     1      S                    0.370
     Mg     1      Px                   0.197
     Mg     1      Py                   0.236
     Mg     1      Pz                   0.156
  -------------------------------------------
                           Total:      16.000
  -------------------------------------------
 
     Atomic Populations (Mulliken)
     -----------------------------
Species          Ion     s      p      d      f     Total  Charge (e)
=====================================================================
  O               1     1.85   5.19   0.00   0.00   7.04    -1.04
  Mg              1     2.37   6.59   0.00   0.00   8.96     1.04
=====================================================================
 
                 Bond                   Population      Length (A)
======================================================================
               O 1 -- Mg 1                   1.25        2.09326
======================================================================
 

Writing analysis data to MgO.castep_bin

Writing model to MgO.check
 
 A BibTeX formatted list of references used in this run has been written to 
 MgO.bib
 
Initialisation time =     10.79 s
Calculation time    =    112.00 s
Finalisation time   =      0.80 s
Total time          =    123.59 s
Peak Memory Use     = 1280104 kB
