 +-------------------------------------------------+
 |                                                 |
 |      CCC   AA    SSS  TTTTT  EEEEE  PPPP        |
 |     C     A  A  S       T    E      P   P       |
 |     C     AAAA   SS     T    EEE    PPPP        |
 |     C     A  A     S    T    E      P           |
 |      CCC  A  A  SSS     T    EEEEE  P           |
 |                                                 |
 +-------------------------------------------------+
 |                                                 |
 | Welcome to Academic Release CASTEP version 20.1 |          
 | Ab Initio Total Energy Program                  |
 |                                                 |
 | Authors:                                        |
 | M. Segall, M. Probert, C. Pickard, P. Hasnip,   |
 | S. Clark, K. Refson, J. R. Yates, M. Payne      |
 |                                                 |
 | Contributors:                                   |
 | P. Lindan, P. Haynes, J. White, V. Milman,      |
 | N. Govind, M. Gibson, P. Tulip, V. Cocula,      |
 | B. Montanari, D. Quigley, M. Glover,            |
 | L. Bernasconi, A. Perlov, M. Plummer,           |
 | E. McNellis, J. Meyer, J. Gale, D. Jochym       |
 | J. Aarons, B. Walker, R. Gillen, D. Jones       |
 | T. Green, I. J. Bush, C. J. Armstrong,          |
 | E. J. Higgins, E. L. Brown, M. S. McFly,        |
 | J. Wilkins, B-C. Shih, P. J. P. Byrne,          |
 | R. J. Maurer, J. C. Womack, A. Bartok-Partay    |
 |                                                 |
 | Copyright (c) 2000 - 2019                       |
 |                                                 |
 |     Distributed under the terms of an           |
 |     Agreement between the United Kingdom        |
 |     Car-Parrinello (UKCP) Consortium,           |
 |     Daresbury Laboratory and Accelrys, Inc.     |
 |                                                 |
 | Please cite                                     |
 |                                                 |
 |     "First principles methods using CASTEP"     |
 |                                                 |
 |         Zeitschrift fuer Kristallographie       |
 |           220(5-6) pp. 567-570 (2005)           |
 |                                                 |
 | S. J. Clark, M. D. Segall, C. J. Pickard,       |
 | P. J. Hasnip, M. J. Probert, K. Refson,         |
 | M. C. Payne                                     |
 |                                                 |
 |       in all publications arising from          |
 |              your use of CASTEP                 |
 |                                                 |
 +-------------------------------------------------+
 |                                                 |
 |              http://www.castep.org              |
 |                                                 |
 +-------------------------------------------------+
 
 
 
 Compiled for linux_x86_64_ifort17 on Mon, 15 Jul 2019 14:09:47 +0100
 from code version 5dacc5c3c63b+  Mon, 10 Jun 2019 22:27:09 +0100
 Compiler: Intel Fortran 17.0.1.132; Optimisation: fast
 MATHLIBS: Intel MKL(2017.0.1) (LAPACK version 3.6.0)
 FFT Lib : mkl
 Fundamental constants values: CODATA 2014
 
 Run started: Mon, 15 Jul 2019 15:33:45 +0100
 
 Atomic calculation performed for O: 1s2 2s2 2p4
 
 Converged in 45 iterations to an ae energy of -2040.902 eV
 
   ============================================================                
   | Pseudopotential Report - Date of generation 15-07-2019   |                
   ------------------------------------------------------------                
   | Element: O Ionic charge:  6.00 Level of theory: PBE      |                
   | Atomic Solver: Koelling-Harmon                           |                
   |                                                          |                
   |               Reference Electronic Structure             |                
   |         Orbital         Occupation         Energy        |                
   |            2s              2.000           -0.881        |                
   |            2p              4.000           -0.332        |                
   |                                                          |                
   |                 Pseudopotential Definition               |                
   |        Beta     l      e      Rc     scheme   norm       |                
   |          1      0   -0.881   1.100     qc      0         |                
   |          2      0    0.250   1.100     qc      0         |                
   |          3      1   -0.332   1.100     qc      0         |                
   |          4      1    0.250   1.100     qc      0         |                
   |         loc     2    0.000   1.100     pn      0         |                
   |                                                          |                
   | Augmentation charge Rinner = 0.769                       |                
   | Partial core correction Rc = 0.769                       |                
   ------------------------------------------------------------                
   | "2|1.1|17|20|23|20:21(qc=8)"                             |                
   ------------------------------------------------------------                
   |      Author: Chris J. Pickard, Cambridge University      |                
   ============================================================                
 
 Atomic calculation performed for Mg: 1s2 2s2 2p6 3s2
 
 Converged in 51 iterations to an ae energy of -5449.889 eV
 
   ============================================================                
   | Pseudopotential Report - Date of generation 15-07-2019   |                
   ------------------------------------------------------------                
   | Element: Mg Ionic charge: 10.00 Level of theory: PBE     |                
   | Atomic Solver: Koelling-Harmon                           |                
   |                                                          |                
   |               Reference Electronic Structure             |                
   |         Orbital         Occupation         Energy        |                
   |            2s              2.000           -2.934        |                
   |            2p              6.000           -1.713        |                
   |            3s              2.000           -0.173        |                
   |                                                          |                
   |                 Pseudopotential Definition               |                
   |        Beta     l      e      Rc     scheme   norm       |                
   |          1      0   -2.934   1.804     qc      0         |                
   |          2      0   -0.173   1.804     qc      0         |                
   |          3      0    0.250   1.804     qc      0         |                
   |          4      1   -1.713   1.804     qc      0         |                
   |          5      1    0.250   1.804     qc      0         |                
   |          6      2    0.000   1.804     qc      0         |                
   |          7      2    0.250   1.804     qc      0         |                
   |         loc     3    0.000   1.804     pn      0         |                
   |                                                          |                
   | Augmentation charge Rinner = 1.261                       |                
   | Partial core correction Rc = 1.261                       |                
   ------------------------------------------------------------                
   | "3|1.8|7|8|9|20U:30:21:32"                               |                
   ------------------------------------------------------------                
   |      Author: Chris J. Pickard, Cambridge University      |                
   ============================================================                
 
 Pseudo atomic calculation performed for O 2s2 2p4
 
 Converged in 22 iterations to a total energy of -432.3111 eV
 
 Pseudo atomic calculation performed for Mg 2s2 2p6 3s2
 
 Converged in 17 iterations to a total energy of -1688.5199 eV
 Calculation not parallelised.

 ************************************ Title ************************************
 

 ***************************** General Parameters ******************************
  
 output verbosity                               : normal  (1)
 write checkpoint data to                       : MgO.check
 type of calculation                            : geometry optimization
 stress calculation                             : off
 density difference calculation                 : off
 electron localisation func (ELF) calculation   : off
 Hirshfeld analysis                             : off
 molecular orbital projected DOS                : off
 deltaSCF calculation                           : off
 unlimited duration calculation
 timing information                             : on
 memory usage estimate                          : on
 write extra output files                       : on
 write final potential to formatted file        : off
 write final density to formatted file          : off
 write BibTeX reference list                    : on
 write OTFG pseudopotential files               : on
 write electrostatic potential file             : on
 write bands file                               : on
 checkpoint writing                             : both castep_bin and check files
  
 output         length unit                     : A
 output           mass unit                     : amu
 output           time unit                     : ps
 output         charge unit                     : e
 output           spin unit                     : hbar/2
 output         energy unit                     : eV
 output          force unit                     : eV/A
 output       velocity unit                     : A/ps
 output       pressure unit                     : GPa
 output     inv_length unit                     : 1/A
 output      frequency unit                     : cm-1
 output force constant unit                     : eV/A**2
 output         volume unit                     : A**3
 output   IR intensity unit                     : (D/A)**2/amu
 output         dipole unit                     : D
 output         efield unit                     : eV/A/e
 output        entropy unit                     : J/mol/K
  
 wavefunctions paging                           : none
 random number generator seed                   : randomised (153346151)
 data distribution                              : optimal for this architecture
 optimization strategy                          : maximize speed(+++)

 *********************** Exchange-Correlation Parameters ***********************
  
 using functional                               : Perdew Burke Ernzerhof
 relativistic treatment                         : Koelling-Harmon
 DFT+D: Semi-empirical dispersion correction    : off

 ************************* Pseudopotential Parameters **************************
  
 pseudopotential representation                 : reciprocal space
 <beta|phi> representation                      : reciprocal space
 spin-orbit coupling                            : off

 **************************** Basis Set Parameters *****************************
  
 basis set accuracy                             : PRECISE
 plane wave basis set cut-off                   :   751.0343   eV
 size of standard grid                          :     1.7500
 size of   fine   grid                          :     4.0000
 size of   fine   gmax                          :    56.1602   1/A
 finite basis set correction                    : automatic
 number of sample energies                      :          3
           sample  spacing                      :     5.0000   eV

 **************************** Electronic Parameters ****************************
  
 number of  electrons                           :  16.00    
 net charge of system                           :  0.000    
 treating system as non-spin-polarized
 number of bands                                :         12

 ********************* Electronic Minimization Parameters **********************
  
 Method: Treating system as metallic with density mixing treatment of electrons,
         and number of  SD  steps               :          1
         and number of  CG  steps               :          4
  
 total energy / atom convergence tol.           : 0.1000E-04   eV
 eigen-energy convergence tolerance             : 0.1000E-05   eV
 max force / atom convergence tol.              : ignored
 convergence tolerance window                   :          3   cycles
 max. number of SCF cycles                      :         30
 number of fixed-spin iterations                :         10
 smearing scheme                                : Gaussian
 smearing width                                 : 0.2000       eV
 Fermi energy convergence tolerance             : 0.2721E-13   eV
 periodic dipole correction                     : NONE

 ************************** Density Mixing Parameters **************************
  
 density-mixing scheme                          : Broyden
 max. length of mixing history                  :         20
 charge density mixing amplitude                : 0.8000    

 *********************** Population Analysis Parameters ************************
  
 Population analysis with cutoff                :  3.000       A
 Population analysis output                     : summary and pdos components

 ********************** Geometry Optimization Parameters ***********************
  
 optimization method                            : LBFGS
 max. no. of LBFGS updates                      : unbounded
 variable cell method                           : fixed basis quality
 max. number of steps                           :         30
 estimated bulk modulus                         :  500.0       GPa
 estimated <frequency>                          :  1668.       cm-1
 geom line minimiser                            : on
 with line minimiser tolerance                  :     0.4000
 total energy convergence tolerance             : 0.2000E-04   eV/atom
        max ionic |force| tolerance             : 0.5000E-01   eV/A
 max ionic |displacement| tolerance             : 0.1000E-02   A
   max |stress component| tolerance             : 0.1000       GPa
 convergence tolerance window                   :          2   steps
 backup results every                           :          5   steps
 write geom trajectory file                     : on

 *******************************************************************************
  
 
                           -------------------------------
                                      Unit Cell
                           -------------------------------
        Real Lattice(A)                      Reciprocal Lattice(1/A)
     2.1056500     2.1056500     0.0000000        1.491982359   1.491982359  -1.491982359
     2.1056500     0.0000000     2.1056500        1.491982359  -1.491982359   1.491982359
     0.0000000     2.1056500     2.1056500       -1.491982359   1.491982359   1.491982359
 
                       Lattice parameters(A)       Cell Angles
                    a =      2.977839          alpha =   60.000000
                    b =      2.977839          beta  =   60.000000
                    c =      2.977839          gamma =   60.000000
 
                       Current cell volume =            18.671902       A**3
                                   density =             2.158559   AMU/A**3
                                           =             3.584371     g/cm^3
 
                           -------------------------------
                                     Cell Contents
                           -------------------------------
                         Total number of ions in cell =    2
                      Total number of species in cell =    2
                        Max number of any one species =    1
 
            xxxxxxxxxxxxxxxxxxxxxxxxxxxxxxxxxxxxxxxxxxxxxxxxxxxxxxxxxxxx
            x  Element    Atom        Fractional coordinates of atoms  x
            x            Number           u          v          w      x
            x----------------------------------------------------------x
            x  O            1         0.500000   0.500000   0.500000   x 
            x  Mg           1         0.000000   0.000000   0.000000   x 
            xxxxxxxxxxxxxxxxxxxxxxxxxxxxxxxxxxxxxxxxxxxxxxxxxxxxxxxxxxxx
 
 
                         No user defined ionic velocities
 
                           -------------------------------
                                   Details of Species
                           -------------------------------
 
                               Mass of species in AMU
                                    O   15.9994000
                                    Mg   24.3050000
 
                          Electric Quadrupole Moment (Barn)
                                    O   -0.0255800 Isotope 17
                                    Mg    0.1994000 Isotope 25
 
                          Files used for pseudopotentials:
                                    O 2|1.1|17|20|23|20:21(qc=8)
                                    Mg 3|1.8|7|8|9|20U:30:21:32
 
                           -------------------------------
                              k-Points For BZ Sampling
                           -------------------------------
                       MP grid size for SCF calculation is  5  5  5
                            with an offset of   0.000  0.000  0.000
                       Number of kpoints used =            10
 
                           -------------------------------
                               Symmetry and Constraints
                           -------------------------------
 
                      Maximum deviation from symmetry =  0.00000         ANG
 
                      Number of symmetry operations   =          48
                      Number of ionic constraints     =           3
                      Point group of crystal =    32: Oh, m-3m, 4/m -3 2/m
                      Space group of crystal =   225: Fm-3m, -F 4 2 3
 
             Set iprint > 1 for details on symmetry rotations/translations
 
                         Centre of mass is constrained
             Set iprint > 1 for details of linear ionic constraints
 
                         Number of cell constraints= 5
                         Cell constraints are:  1 1 1 0 0 0
 
                         External pressure/stress (GPa)
                          0.00000   0.00000   0.00000
                                    0.00000   0.00000
                                              0.00000
  
+---------------- MEMORY AND SCRATCH DISK ESTIMATES PER PROCESS --------------+
|                                                     Memory          Disk    |
| Baseline code, static data and system overhead       46.0 MB         0.0 MB |
| BLAS internal memory storage                          0.0 MB         0.0 MB |
| Model and support data                              746.6 MB         0.0 MB |
| Electronic energy minimisation requirements          14.9 MB         0.0 MB |
| Force calculation requirements                       23.5 MB         0.0 MB |
|                                               ----------------------------- |
| Approx. total storage required per process          816.0 MB         0.0 MB |
|                                                                             |
| Requirements will fluctuate during execution and may exceed these estimates |
+-----------------------------------------------------------------------------+
Calculating finite basis set correction with  3 cut-off energies.
Calculating total energy with cut-off of  741.034 eV.
------------------------------------------------------------------------ <-- SCF
SCF loop      Energy           Fermi           Energy gain       Timer   <-- SCF
                               energy          per atom          (sec)   <-- SCF
------------------------------------------------------------------------ <-- SCF
Initial  -1.66769166E+003  0.00000000E+000                        12.47  <-- SCF
      1  -2.11072723E+003  5.50794253E+000   2.21517787E+002      13.42  <-- SCF
      2  -2.13412301E+003  2.27798648E+000   1.16978874E+001      13.95  <-- SCF
      3  -2.13460750E+003  2.26838332E+000   2.42246808E-001      14.58  <-- SCF
      4  -2.13403116E+003  7.09217134E+000  -2.88167630E-001      16.48  <-- SCF
      5  -2.13385642E+003  3.25121110E+000  -8.73743204E-002      18.34  <-- SCF
      6  -2.13325302E+003  4.22809524E+000  -3.01696474E-001      20.21  <-- SCF
      7  -2.13305601E+003  5.29710406E+000  -9.85056850E-002      22.04  <-- SCF
      8  -2.13305441E+003  5.18636063E+000  -8.02759407E-004      23.82  <-- SCF
      9  -2.13305436E+003  5.20052553E+000  -2.41600529E-005      25.44  <-- SCF
     10  -2.13305436E+003  5.20385824E+000  -4.17331001E-007      26.92  <-- SCF
     11  -2.13305436E+003  5.20525122E+000   1.05800507E-007      28.43  <-- SCF
------------------------------------------------------------------------ <-- SCF
 
Final energy, E             =  -2133.054356965     eV
Final free energy (E-TS)    =  -2133.054356965     eV
(energies not corrected for finite basis set)
 
NB est. 0K energy (E-0.5TS)      =  -2133.054356965     eV
 
Calculating total energy with cut-off of  746.034 eV.
------------------------------------------------------------------------ <-- SCF
SCF loop      Energy           Fermi           Energy gain       Timer   <-- SCF
                               energy          per atom          (sec)   <-- SCF
------------------------------------------------------------------------ <-- SCF
Initial  -2.13305436E+003  0.00000000E+000                        30.90  <-- SCF
      1  -2.13305730E+003  5.20464003E+000   1.47134547E-003      31.47  <-- SCF
      2  -2.13305730E+003  5.20464003E+000   4.59328814E-007      32.95  <-- SCF
      3  -2.13305731E+003  5.20555769E+000   1.27279962E-006      34.43  <-- SCF
      4  -2.13305731E+003  5.20472933E+000   1.29015478E-007      35.92  <-- SCF
------------------------------------------------------------------------ <-- SCF
 
Final energy, E             =  -2133.057306160     eV
Final free energy (E-TS)    =  -2133.057306160     eV
(energies not corrected for finite basis set)
 
NB est. 0K energy (E-0.5TS)      =  -2133.057306160     eV
 
Calculating total energy with cut-off of  751.034 eV.
------------------------------------------------------------------------ <-- SCF
SCF loop      Energy           Fermi           Energy gain       Timer   <-- SCF
                               energy          per atom          (sec)   <-- SCF
------------------------------------------------------------------------ <-- SCF
Initial  -2.13305731E+003  0.00000000E+000                        38.38  <-- SCF
      1  -2.13305913E+003  5.20457387E+000   9.11406659E-004      38.95  <-- SCF
      2  -2.13305913E+003  5.20457331E+000   2.59150251E-007      40.42  <-- SCF
      3  -2.13305913E+003  5.20373765E+000   6.47372051E-007      41.92  <-- SCF
      4  -2.13305913E+003  5.20455473E+000   6.52750427E-008      43.39  <-- SCF
------------------------------------------------------------------------ <-- SCF
 
Final energy, E             =  -2133.059133631     eV
Final free energy (E-TS)    =  -2133.059133631     eV
(energies not corrected for finite basis set)
 
NB est. 0K energy (E-0.5TS)      =  -2133.059133631     eV
 
 For future reference: finite basis dEtot/dlog(Ecut) =      -0.370467eV
 Total energy corrected for finite basis set =   -2133.059325 eV
 
+---------------- MEMORY AND SCRATCH DISK ESTIMATES PER PROCESS --------------+
|                                                     Memory          Disk    |
| Model and support data                              750.9 MB         0.0 MB |
| Electronic energy minimisation requirements          14.9 MB         0.0 MB |
| Geometry minimisation requirements                   19.0 MB         0.0 MB |
|                                               ----------------------------- |
| Approx. total storage required per process          784.8 MB         0.0 MB |
|                                                                             |
| Requirements will fluctuate during execution and may exceed these estimates |
+-----------------------------------------------------------------------------+
 
 
 *********** Symmetrised Stress Tensor ***********
 *                                               *
 *          Cartesian components (GPa)           *
 * --------------------------------------------- *
 *             x             y             z     *
 *                                               *
 *  x     -4.798420     -0.000000     -0.000000  *
 *  y     -0.000000     -4.798420     -0.000000  *
 *  z     -0.000000     -0.000000     -4.798420  *
 *                                               *
 *  Pressure:    4.7984                          *
 *                                               *
 *************************************************
 LBFGS: finished iteration     0 with enthalpy= -2.13305932E+003 eV
  
 +-----------+-----------------+-----------------+------------+-----+ <-- LBFGS
 | Parameter |      value      |    tolerance    |    units   | OK? | <-- LBFGS
 +-----------+-----------------+-----------------+------------+-----+ <-- LBFGS
 |  dE/ion   |   0.000000E+000 |   2.000000E-005 |         eV | No  | <-- LBFGS
 |   Smax    |   4.798420E+000 |   1.000000E-001 |        GPa | No  | <-- LBFGS
 +-----------+-----------------+-----------------+------------+-----+ <-- LBFGS
  

================================================================================
 Starting LBFGS iteration          1 ...
================================================================================
  
 +------------+-------------+-------------+-----------------+ <-- min LBFGS
 |    Step    |   lambda    |   F.delta'  |    enthalpy     | <-- min LBFGS
 +------------+-------------+-------------+-----------------+ <-- min LBFGS
 |  previous  |    0.000000 |    0.035595 |    -2133.059325 | <-- min LBFGS
 +------------+-------------+-------------+-----------------+ <-- min LBFGS
  

--------------------------------------------------------------------------------
 LBFGS: starting iteration         1 with trial guess (lambda=  1.000000)
--------------------------------------------------------------------------------
 
+---------------- MEMORY AND SCRATCH DISK ESTIMATES PER PROCESS --------------+
|                                                     Memory          Disk    |
| Model and support data                              750.9 MB         0.0 MB |
| Electronic energy minimisation requirements          14.9 MB         0.0 MB |
| Geometry minimisation requirements                   19.0 MB         0.0 MB |
|                                               ----------------------------- |
| Approx. total storage required per process          784.9 MB         0.0 MB |
|                                                                             |
| Requirements will fluctuate during execution and may exceed these estimates |
+-----------------------------------------------------------------------------+
 
 
                           -------------------------------
                                      Unit Cell
                           -------------------------------
        Real Lattice(A)              Reciprocal Lattice(1/A)
     2.1123859     2.1123859    -0.0000000        1.487224806   1.487224806  -1.487224806
     2.1123859    -0.0000000     2.1123859        1.487224806  -1.487224806   1.487224806
     0.0000000     2.1123859     2.1123859       -1.487224806   1.487224806   1.487224806
 
                       Lattice parameters(A)       Cell Angles
                    a =      2.987365          alpha =   60.000000
                    b =      2.987365          beta  =   60.000000
                    c =      2.987365          gamma =   60.000000
 
                Current cell volume =            18.851667 A**3
                            density =             2.137975 amu/A**3
                                    =             3.550192 g/cm^3
 
------------------------------------------------------------------------ <-- SCF
SCF loop      Energy           Fermi           Energy gain       Timer   <-- SCF
                               energy          per atom          (sec)   <-- SCF
------------------------------------------------------------------------ <-- SCF
Initial  -2.13300072E+003  0.00000000E+000                        53.44  <-- SCF
      1  -2.13309662E+003  4.93177672E+000   4.79531046E-002      54.18  <-- SCF
      2  -2.13309673E+003  4.93177636E+000   5.38280286E-005      55.88  <-- SCF
      3  -2.13307174E+003  5.30556819E+000  -1.24965717E-002      57.69  <-- SCF
      4  -2.13306460E+003  5.07508544E+000  -3.57111317E-003      59.53  <-- SCF
      5  -2.13306401E+003  5.12454292E+000  -2.91718968E-004      61.30  <-- SCF
      6  -2.13306401E+003  5.12370974E+000  -5.09974141E-008      62.77  <-- SCF
      7  -2.13306401E+003  5.12452544E+000   1.27041583E-008      64.24  <-- SCF
------------------------------------------------------------------------ <-- SCF
 
Final energy, E             =  -2133.064012940     eV
Final free energy (E-TS)    =  -2133.064012940     eV
(energies not corrected for finite basis set)
 
NB est. 0K energy (E-0.5TS)      =  -2133.064012940     eV
 
 
 *********** Symmetrised Stress Tensor ***********
 *                                               *
 *          Cartesian components (GPa)           *
 * --------------------------------------------- *
 *             x             y             z     *
 *                                               *
 *  x     -3.298003     -0.000000     -0.000000  *
 *  y     -0.000000     -3.298003      0.000000  *
 *  z     -0.000000      0.000000     -3.298003  *
 *                                               *
 *  Pressure:    3.2980                          *
 *                                               *
 *************************************************
  
 +------------+-------------+-------------+-----------------+ <-- min LBFGS
 |    Step    |   lambda    |   F.delta'  |    enthalpy     | <-- min LBFGS
 +------------+-------------+-------------+-----------------+ <-- min LBFGS
 |  previous  |    0.000000 |    0.035595 |    -2133.059325 | <-- min LBFGS
 | trial step |    1.000000 |    0.024621 |    -2133.063482 | <-- min LBFGS
 +------------+-------------+-------------+-----------------+ <-- min LBFGS
  

--------------------------------------------------------------------------------
 LBFGS: improving iteration         1 with line minimization (lambda=  3.243747)
--------------------------------------------------------------------------------
 
+---------------- MEMORY AND SCRATCH DISK ESTIMATES PER PROCESS --------------+
|                                                     Memory          Disk    |
| Model and support data                              751.0 MB         0.0 MB |
| Electronic energy minimisation requirements          14.9 MB         0.0 MB |
| Geometry minimisation requirements                   19.1 MB         0.0 MB |
|                                               ----------------------------- |
| Approx. total storage required per process          785.1 MB         0.0 MB |
|                                                                             |
| Requirements will fluctuate during execution and may exceed these estimates |
+-----------------------------------------------------------------------------+
 
 
                           -------------------------------
                                      Unit Cell
                           -------------------------------
        Real Lattice(A)              Reciprocal Lattice(1/A)
     2.1274994     2.1274994    -0.0000000        1.476659688   1.476659688  -1.476659688
     2.1274994    -0.0000000     2.1274994        1.476659688  -1.476659688   1.476659688
     0.0000000     2.1274994     2.1274994       -1.476659688   1.476659688   1.476659688
 
                       Lattice parameters(A)       Cell Angles
                    a =      3.008739          alpha =   60.000000
                    b =      3.008739          beta  =   60.000000
                    c =      3.008739          gamma =   60.000000
 
                Current cell volume =            19.259205 A**3
                            density =             2.092734 amu/A**3
                                    =             3.475067 g/cm^3
 
------------------------------------------------------------------------ <-- SCF
SCF loop      Energy           Fermi           Energy gain       Timer   <-- SCF
                               energy          per atom          (sec)   <-- SCF
------------------------------------------------------------------------ <-- SCF
Initial  -2.13275626E+003  0.00000000E+000                        74.36  <-- SCF
      1  -2.13323297E+003  4.52096508E+000   2.38355186E-001      75.07  <-- SCF
      2  -2.13323361E+003  4.52096462E+000   3.19631439E-004      76.79  <-- SCF
      3  -2.13310709E+003  5.35707108E+000  -6.32605693E-002      78.62  <-- SCF
      4  -2.13307047E+003  4.83474270E+000  -1.83120194E-002      80.46  <-- SCF
      5  -2.13306735E+003  4.95000064E+000  -1.55831573E-003      82.29  <-- SCF
      6  -2.13306735E+003  4.94812671E+000  -4.10317089E-007      83.76  <-- SCF
      7  -2.13306735E+003  4.94914302E+000   2.24326828E-008      85.25  <-- SCF
------------------------------------------------------------------------ <-- SCF
 
Final energy, E             =  -2133.067349936     eV
Final free energy (E-TS)    =  -2133.067349936     eV
(energies not corrected for finite basis set)
 
NB est. 0K energy (E-0.5TS)      =  -2133.067349936     eV
 
 
 *********** Symmetrised Stress Tensor ***********
 *                                               *
 *          Cartesian components (GPa)           *
 * --------------------------------------------- *
 *             x             y             z     *
 *                                               *
 *  x     -0.022458      0.000000      0.000000  *
 *  y      0.000000     -0.022458      0.000000  *
 *  z      0.000000      0.000000     -0.022458  *
 *                                               *
 *  Pressure:    0.0225                          *
 *                                               *
 *************************************************
  
 +------------+-------------+-------------+-----------------+ <-- min LBFGS
 |    Step    |   lambda    |   F.delta'  |    enthalpy     | <-- min LBFGS
 +------------+-------------+-------------+-----------------+ <-- min LBFGS
 |  previous  |    0.000000 |    0.035595 |    -2133.059325 | <-- min LBFGS
 | trial step |    1.000000 |    0.024621 |    -2133.063482 | <-- min LBFGS
 |  line step |    3.243747 |    0.000170 |    -2133.066789 | <-- min LBFGS
 +------------+-------------+-------------+-----------------+ <-- min LBFGS
  
 LBFGS: finished iteration     1 with enthalpy= -2.13306679E+003 eV
  
 +-----------+-----------------+-----------------+------------+-----+ <-- LBFGS
 | Parameter |      value      |    tolerance    |    units   | OK? | <-- LBFGS
 +-----------+-----------------+-----------------+------------+-----+ <-- LBFGS
 |  dE/ion   |   3.732086E-003 |   2.000000E-005 |         eV | No  | <-- LBFGS
 |   Smax    |   2.245789E-002 |   1.000000E-001 |        GPa | Yes | <-- LBFGS
 +-----------+-----------------+-----------------+------------+-----+ <-- LBFGS
  

================================================================================
 Starting LBFGS iteration          2 ...
================================================================================
  
 +------------+-------------+-------------+-----------------+ <-- min LBFGS
 |    Step    |   lambda    |   F.delta'  |    enthalpy     | <-- min LBFGS
 +------------+-------------+-------------+-----------------+ <-- min LBFGS
 |  previous  |    0.000000 |    0.000170 |    -2133.066789 | <-- min LBFGS
 +------------+-------------+-------------+-----------------+ <-- min LBFGS
  

--------------------------------------------------------------------------------
 LBFGS: starting iteration         2 with trial guess (lambda=  1.000000)
--------------------------------------------------------------------------------
 
                           -------------------------------
                                      Unit Cell
                           -------------------------------
        Real Lattice(A)              Reciprocal Lattice(1/A)
     2.1276043     2.1276043    -0.0000000        1.476586885   1.476586885  -1.476586885
     2.1276043    -0.0000000     2.1276043        1.476586885  -1.476586885   1.476586885
     0.0000000     2.1276043     2.1276043       -1.476586885   1.476586885   1.476586885
 
                       Lattice parameters(A)       Cell Angles
                    a =      3.008887          alpha =   60.000000
                    b =      3.008887          beta  =   60.000000
                    c =      3.008887          gamma =   60.000000
 
                Current cell volume =            19.262054 A**3
                            density =             2.092425 amu/A**3
                                    =             3.474553 g/cm^3
 
------------------------------------------------------------------------ <-- SCF
SCF loop      Energy           Fermi           Energy gain       Timer   <-- SCF
                               energy          per atom          (sec)   <-- SCF
------------------------------------------------------------------------ <-- SCF
Initial  -2.13306730E+003  0.00000000E+000                        95.32  <-- SCF
      1  -2.13306732E+003  4.94361432E+000   9.05513486E-006      95.81  <-- SCF
      2  -2.13306732E+003  4.94361408E+000   4.97874196E-007      97.28  <-- SCF
      3  -2.13306731E+003  4.95005521E+000  -3.35030499E-006      98.76  <-- SCF
      4  -2.13306731E+003  4.94667447E+000  -7.11761170E-007     100.23  <-- SCF
------------------------------------------------------------------------ <-- SCF
 
Final energy, E             =  -2133.067312465     eV
Final free energy (E-TS)    =  -2133.067312465     eV
(energies not corrected for finite basis set)
 
NB est. 0K energy (E-0.5TS)      =  -2133.067312465     eV
 
 
 *********** Symmetrised Stress Tensor ***********
 *                                               *
 *          Cartesian components (GPa)           *
 * --------------------------------------------- *
 *             x             y             z     *
 *                                               *
 *  x      0.062792      0.000000      0.000000  *
 *  y      0.000000      0.062792      0.000000  *
 *  z      0.000000      0.000000      0.062792  *
 *                                               *
 *  Pressure:   -0.0628                          *
 *                                               *
 *************************************************
  
 +------------+-------------+-------------+-----------------+ <-- min LBFGS
 |    Step    |   lambda    |   F.delta'  |    enthalpy     | <-- min LBFGS
 +------------+-------------+-------------+-----------------+ <-- min LBFGS
 |  previous  |    0.000000 |    0.000170 |    -2133.066789 | <-- min LBFGS
 | trial step |    1.000000 |   -0.000476 |    -2133.066788 | <-- min LBFGS
 +------------+-------------+-------------+-----------------+ <-- min LBFGS
  
 LBFGS: finished iteration     2 with enthalpy= -2.13306679E+003 eV
  
 +-----------+-----------------+-----------------+------------+-----+ <-- LBFGS
 | Parameter |      value      |    tolerance    |    units   | OK? | <-- LBFGS
 +-----------+-----------------+-----------------+------------+-----+ <-- LBFGS
 |  dE/ion   |   4.700142E-007 |   2.000000E-005 |         eV | Yes | <-- LBFGS
 |   Smax    |   6.279188E-002 |   1.000000E-001 |        GPa | Yes | <-- LBFGS
 +-----------+-----------------+-----------------+------------+-----+ <-- LBFGS
  
 LBFGS: Geometry optimization completed successfully.

================================================================================
 LBFGS: Final Configuration:
================================================================================
 
                           -------------------------------
                                      Unit Cell
                           -------------------------------
        Real Lattice(A)              Reciprocal Lattice(1/A)
     2.1276043     2.1276043    -0.0000000        1.476586885   1.476586885  -1.476586885
     2.1276043    -0.0000000     2.1276043        1.476586885  -1.476586885   1.476586885
     0.0000000     2.1276043     2.1276043       -1.476586885   1.476586885   1.476586885
 
                       Lattice parameters(A)       Cell Angles
                    a =      3.008887          alpha =   60.000000
                    b =      3.008887          beta  =   60.000000
                    c =      3.008887          gamma =   60.000000
 
                Current cell volume =            19.262054 A**3
                            density =             2.092425 amu/A**3
                                    =             3.474553 g/cm^3
 
 LBFGS: Final Enthalpy     = -2.13306679E+003 eV
 LBFGS: Final bulk modulus unchanged from initial value
 
 ******************************** Symmetrised Forces ********************************
 *                                                                                  *
 *                           Cartesian components (eV/A)                            *
 * -------------------------------------------------------------------------------- *
 *                         x                    y                    z              *
 *                                                                                  *
 * O               1      0.00000              0.00000              0.00000         *
 * Mg              1      0.00000              0.00000              0.00000         *
 *                                                                                  *
 ************************************************************************************
 
 *********** Symmetrised Stress Tensor ***********
 *                                               *
 *          Cartesian components (GPa)           *
 * --------------------------------------------- *
 *             x             y             z     *
 *                                               *
 *  x      0.062792      0.000000      0.000000  *
 *  y      0.000000      0.062792      0.000000  *
 *  z      0.000000      0.000000      0.062792  *
 *                                               *
 *  Pressure:   -0.0628                          *
 *                                               *
 *************************************************
 
 Pseudo atomic calculation performed for O 2s2 2p4
 
 Converged in 22 iterations to a total energy of -432.3111 eV
 
 Pseudo atomic calculation performed for Mg 2s2 2p6 3s2
 
 Converged in 17 iterations to a total energy of -1688.5199 eV
Charge spilling parameter for spin component 1 = 0.25%
 
            Orbital Populations       
     Ion    Atom   Orbital             Charge
  -------------------------------------------
      O     1      S                    1.827
      O     1      Px                   1.709
      O     1      Py                   1.663
      O     1      Pz                   1.717
     Mg     1      S                    2.000
     Mg     1      Px                   2.001
     Mg     1      Py                   2.000
     Mg     1      Pz                   2.000
     Mg     1      S                    0.323
     Mg     1      Px                   0.267
     Mg     1      Py                   0.290
     Mg     1      Pz                   0.202
  -------------------------------------------
                           Total:      16.000
  -------------------------------------------
 
     Atomic Populations (Mulliken)
     -----------------------------
Species          Ion     s      p      d      f     Total  Charge (e)
=====================================================================
  O               1     1.83   5.09   0.00   0.00   6.92    -0.92
  Mg              1     2.32   6.76   0.00   0.00   9.08     0.92
=====================================================================
 
                 Bond                   Population      Length (A)
======================================================================
               O 1 -- Mg 1                   1.19        2.12760
======================================================================
 

Writing analysis data to MgO.castep_bin

Writing model to MgO.check
 
 A BibTeX formatted list of references used in this run has been written to 
 MgO.bib
 
Initialisation time =      9.50 s
Calculation time    =    101.22 s
Finalisation time   =      0.61 s
Total time          =    111.34 s
Peak Memory Use     = 1203036 kB
